
                                 *****************
                                 * O   R   C   A *
                                 *****************

                                            #,                                       
                                            ###                                      
                                            ####                                     
                                            #####                                    
                                            ######                                   
                                           ########,                                 
                                     ,,################,,,,,                         
                               ,,#################################,,                 
                          ,,##########################################,,             
                       ,#########################################, ''#####,          
                    ,#############################################,,   '####,        
                  ,##################################################,,,,####,       
                ,###########''''           ''''###############################       
              ,#####''   ,,,,##########,,,,          '''####'''          '####       
            ,##' ,,,,###########################,,,                        '##       
           ' ,,###''''                  '''############,,,                           
         ,,##''                                '''############,,,,        ,,,,,,###''
      ,#''                                            '''#######################'''  
     '                                                          ''''####''''         
             ,#######,   #######,   ,#######,      ##                                
            ,#'     '#,  ##    ##  ,#'     '#,    #''#        ,####,   ,####,        
            ##       ##  ##   ,#'  ##            #'  '#       #'       #'  '#        
            ##       ##  #######   ##           ,######,      #####,   #    #        
            '#,     ,#'  ##    ##  '#,     ,#' ,#      #,     #,   #   #,  ,#        
             '#######'   ##     ##  '#######'  #'      '#     '####' # '####'        



                #########################################################
                #                        -***-                          #
                #          Department of theory and spectroscopy        #
                #                                                       #
                #                      Frank Neese                      #
                #                                                       #
                #     Directorship, Architecture, Infrastructure        #
                #                    SHARK, DRIVERS                     #
                #        Core code/Algorithms in most modules           #
                #                                                       #
                #        Max Planck Institute fuer Kohlenforschung      #
                #                Kaiser Wilhelm Platz 1                 #
                #                 D-45470 Muelheim/Ruhr                 #
                #                      Germany                          #
                #                                                       #
                #                  All rights reserved                  #
                #                        -***-                          #
                #########################################################


                         Program Version 6.0.1  -  RELEASE   -


 With contributions from (in alphabetic order):
[Max-Planck-Institut fuer Kohlenforschung]                               
  Daniel Aravena         : Magnetic Suceptibility                        
  Michael Atanasov       : Ab Initio Ligand Field Theory (pilot matlab implementation)
  Alexander A. Auer      : GIAO ZORA, VPT2 properties, NMR spectrum      
  Ute Becker             : All parallelization in ORCA, NUMFREQ, NUMCALC 
  Giovanni Bistoni       : ED, misc. LED, open-shell LED, HFLD           
  Martin Brehm           : Molecular dynamics                            
  Dmytro Bykov           : pre 5.0 version of the SCF Hessian            
  Marcos Casanova-Páez   : Triplet and SCS-CIS(D). UHF-(DLPNO)-IP/EA/STEOM-CCSD. UHF-CVS-IP/STEOM-CCSD   
  Vijay G. Chilkuri      : MRCI spin determinant printing, contributions to CSF-ICE 
  Pauline Colinet        : FMM embedding                                 
  Dipayan Datta          : RHF DLPNO-CCSD density                        
  Achintya Kumar Dutta   : EOM-CC, STEOM-CC                              
  Nicolas Foglia         : Exact transition moments, OPA infrastructure, MCD improvements    
  Dmitry Ganyushin       : Spin-Orbit,Spin-Spin,Magnetic field MRCI      
  Miquel Garcia-Rates    : C-PCM and meta-GGA Hessian, CCSD/C-PCM, Gaussian charge scheme 
  Tiago L. C. Gouveia    : GS-ROHF, GS-ROCIS                             
  Yang Guo               : DLPNO-NEVPT2, F12-NEVPT2, CIM, IAO-localization        
  Andreas Hansen         : Spin unrestricted coupled pair/coupled cluster methods 
  Ingolf Harden          : AUTO-CI MPn and infrastructure                
  Benjamin Helmich-Paris : MC-RPA, TRAH-(SCF,CASSCF), AVAS, COSX integrals, SCF dyn. polar. 
  Lee Huntington         : MR-EOM, pCC                                   
  Robert Izsak           : Overlap fitted RIJCOSX, COSX-SCS-MP3, EOM     
  Riya Kayal             : Wick's Theorem for AUTO-CI, AUTO-CI UHF-CCSDT 
  Emily Kempfer          : AUTO-CI, RHF CISDT and CCSDT                  
  Christian Kollmar      : KDIIS, OOCD, Brueckner-CCSD(T), CCSD density, CASPT2, CASPT2-K, improved NEVPT2 
  Axel Koslowski         : Symmetry handling                             
  Simone Kossmann        : meta-GGA functionals, TD-DFT gradient, OOMP2, (MP2 Hessian; deprecated post 5.0) 
  Lucas Lang             : DCDCAS                                        
  Marvin Lechner         : AUTO-CI (C++ implementation), FIC-MRCC        
  Spencer Leger          : CASSCF response                               
  Dagmar Lenk            : GEPOL surface, SMD, ORCA-2-JSON               
  Dimitrios Liakos       : Extrapolation schemes; Compound Job, initial MDCI parallelization 
  Dimitrios Manganas     : Further ROCIS development; embedding schemes. LFT, Crystal Embedding 
  Dimitrios Pantazis     : SARC Basis sets                               
  Anastasios Papadopoulos: AUTO-CI, single reference methods and gradients 
  Taras Petrenko         : pre 6.0 DFT Hessian and TD-DFT gradient, (ASA, deprecated), ECA, 1-Electron XAS/XES, NRVS 
  Peter Pinski           : DLPNO-MP2, DLPNO-MP2 Gradient                 
  Christoph Reimann      : Effective Core Potentials                     
  Marius Retegan         : Local ZFS, SOC                                
  Christoph Riplinger    : Optimizer, TS searches, QM/MM, DLPNO-CCSD(T), (RO)-DLPNO pert. Triples 
  Michael Roemelt        : Original ROCIS implementation                 
  Masaaki Saitow         : Open-shell DLPNO-CCSD energy and density      
  Barbara Sandhoefer     : DKH picture change effects                    
  Kantharuban Sivalingam : CASSCF convergence/infrastructure, NEVPT2 and variants, FIC-MRCI 
  Bernardo de Souza      : ESD, SOC TD-DFT                               
  Georgi L. Stoychev     : AutoAux, RI-MP2 NMR, DLPNO-MP2 response, X2C  
  Van Anh Tran           : RI-MP2 g-tensors                              
  Willem Van den Heuvel  : Paramagnetic NMR                              
  Zikuan Wang            : NOTCH, Electric field optimization            
  Frank Wennmohs         : Technical directorship and infrastructure     
  Hang Xu                : AUTO-CI-Response properties                   
                                                                         
[FACCTs GmbH]                                                            
  Markus Bursch, Miquel Garcia-Rates, Christoph Riplinger, Bernardo de Souza, Georgi L. Stoychev 
                                                                 
  APM, Basis sets (HGBS, AHGBS, def-TZVP (Ac-Lr), def2-XVPD (La-Lu)), CI-OPT, improved COSX, DLPNO-Multilevel,           
  DOCKER, DRACO, updates on ESD, GOAT, IRC, LR-CPCM, MBIS, meta-GGA TD-DFT gradient, ML-optimized integration grids, 
  MM, NACMEs, nearIR, NEB, NEB-TS, NL-DFT gradient (VV10), 2- and 3-layer-ONIOM, interface openCOSMO-RS, QMMM,   
  Crystal-QMMM, SF, symmetry and pop. for TD-DFT, r2SCAN hybrids, SOLVATOR                                   
                                                                         
[Other institutions]                                                     
  V. Asgeirsson          : NEB                                           
  Christoph Bannwarth    : sTDA-DFT, sTD-DFT, PBEh-3c, B97-3c, D3        
  Sebastian Ehlert       : rSCAN, r2SCAN, r2SCAN-3c, D4, dhf basis sets  
  Marvin Friede          : D4 for Fr, Ra, Ac-Lr                          
  Lars Goerigk           : TD-DFT with DH, B97 family of functionals     
  Stefan Grimme          : VdW corrections, initial TS optimization, DFT functionals, gCP, sTDA/sTD-DF 
  Waldemar Hujo          : DFT-NL                                        
  H. Jonsson             : NEB                                           
  Holger Kruse           : gCP                                           
  Marcel Mueller         : wB97X-3c, vDZP basis set                      
  Hagen Neugebauer       : wr2SCAN                                       
  Tobias Risthaus        : range-separated hybrid DFT                    
  Lukas Wittmann         : regularized MP2, r2SCAN double-hybrids, wr2SCAN        
                                                                         
We gratefully acknowledge several colleagues who have allowed us to      
interface, adapt or use parts of their codes:                            
  Ed Valeev, F. Pavosevic, A. Kumar             : LibInt (2-el integral package), F12 methods 
  Garnet Chan, S. Sharma, J. Yang, R. Olivares  : DMRG                   
  Ulf Ekstrom                                   : XCFun DFT Library      
  Mihaly Kallay                                 : mrcc  (arbitrary order and MRCC methods)
  Frank Weinhold                                : gennbo (NPA and NBO analysis)           
  Simon Mueller                                 : openCOSMO-RS                            
  Christopher J. Cramer and Donald G. Truhlar   : smd solvation model                     
  S Lehtola, MJT Oliveira, MAL Marques          : LibXC Library                           
  Liviu Ungur et al                             : ANISO software                          


 Your calculation uses the libint2 library for the computation of 2-el integrals
 For citations please refer to: http://libint.valeyev.net

 Your ORCA version has been built with support for libXC version: 6.2.2
 For citations please refer to: https://libxc.gitlab.io

 This ORCA versions uses:
   CBLAS   interface :  Fast vector & matrix operations
   LAPACKE interface :  Fast linear algebra routines
   SCALAPACK package :  Parallel linear algebra routines
   Shared memory     :  Shared parallel matrices
   BLAS/LAPACK       :  OpenBLAS 0.3.27  USE64BITINT DYNAMIC_ARCH NO_AFFINITY SkylakeX SINGLE_THREADED
        Core in use  :  SkylakeX
   Copyright (c) 2011-2014, The OpenBLAS Project


NOTE: MaxCore=3000 MB was set to SCF,MP2,MDCI,CIPSI,MRCI and CIS
      => If you want to overwrite this, your respective input block should be placed after the MaxCore statement
Your calculation utilizes the atom-pairwise dispersion correction
with the Becke-Johnson damping scheme (D3BJ)


================================================================================

----- Orbital basis set information -----
Your calculation utilizes the basis: def2-SVP
   F. Weigend and R. Ahlrichs, Phys. Chem. Chem. Phys. 7, 3297 (2005).

----- AuxJ basis set information -----
Your calculation utilizes the auxiliary basis: def2/J
   F. Weigend, Phys. Chem. Chem. Phys. 8, 1057 (2006).

================================================================================
                                        WARNINGS
                       Please study these warnings very carefully!
================================================================================

WARNING: Old DensityContainer found on disk!
         Will remove this file - 
         If you want to keep old densities, please start your calculation with a different basename. 


================================================================================
                                       INPUT FILE
================================================================================
NAME = react_cpcm.inp
|  1> ! B3LYP D3BJ def2-SVP def2/J RIJCOSX CPCM KeepDens
|  2> %maxcore 3000
|  3> %pal nprocs 8 end
|  4> %cpcm epsilon 4.0 end
|  5> %scf MaxIter 300 end
|  6> * xyz -2 1
|  7> C       60.172000      34.451000      57.183000
|  8> H       60.677000      33.499000      57.335000
|  9> H       60.772000      35.350000      57.045000
| 10> C       58.839000      34.555000      57.144000
| 11> C       58.135000      35.886000      56.934000
| 12> O       58.849000      36.889000      56.668000
| 13> O       56.881000      35.881000      57.035000
| 14> O       58.005000      33.466000      57.323000
| 15> C       57.784000      32.577000      56.181000
| 16> H       57.124000      31.796000      56.591000
| 17> C       59.093000      31.984000      55.785000
| 18> H       59.575000      31.290000      56.476000
| 19> C       59.761000      32.399000      54.695000
| 20> C       59.155000      33.384000      53.794000
| 21> H       59.783000      33.750000      52.978000
| 22> C       57.896000      33.830000      53.961000
| 23> H       57.462000      34.569000      53.280000
| 24> C       57.005000      33.293000      55.047000
| 25> H       56.477000      34.135000      55.527000
| 26> O       56.061000      32.411000      54.429000
| 27> H       55.414000      32.150000      55.104000
| 28> C       61.158000      31.870000      54.411000
| 29> O       61.820000      31.431000      55.388000
| 30> O       61.546000      31.910000      53.219000
| 31> *
| 32> 
| 33>                          ****END OF INPUT****
================================================================================

                       ****************************
                       * Single Point Calculation *
                       ****************************

---------------------------------
CARTESIAN COORDINATES (ANGSTROEM)
---------------------------------
  C     60.172000   34.451000   57.183000
  H     60.677000   33.499000   57.335000
  H     60.772000   35.350000   57.045000
  C     58.839000   34.555000   57.144000
  C     58.135000   35.886000   56.934000
  O     58.849000   36.889000   56.668000
  O     56.881000   35.881000   57.035000
  O     58.005000   33.466000   57.323000
  C     57.784000   32.577000   56.181000
  H     57.124000   31.796000   56.591000
  C     59.093000   31.984000   55.785000
  H     59.575000   31.290000   56.476000
  C     59.761000   32.399000   54.695000
  C     59.155000   33.384000   53.794000
  H     59.783000   33.750000   52.978000
  C     57.896000   33.830000   53.961000
  H     57.462000   34.569000   53.280000
  C     57.005000   33.293000   55.047000
  H     56.477000   34.135000   55.527000
  O     56.061000   32.411000   54.429000
  H     55.414000   32.150000   55.104000
  C     61.158000   31.870000   54.411000
  O     61.820000   31.431000   55.388000
  O     61.546000   31.910000   53.219000

----------------------------
CARTESIAN COORDINATES (A.U.)
----------------------------
  NO LB      ZA    FRAG     MASS         X           Y           Z
   0 C     6.0000    0    12.011  113.708601   65.102955  108.060210
   1 H     1.0000    0     1.008  114.662913   63.303936  108.347448
   2 H     1.0000    0     1.008  114.842437   66.801819  107.799427
   3 C     6.0000    0    12.011  111.189596   65.299487  107.986510
   4 C     6.0000    0    12.011  109.859229   67.814712  107.589668
   5 O     8.0000    0    15.999  111.208493   69.710107  107.087001
   6 O     8.0000    0    15.999  107.489512   67.805263  107.780530
   7 O     8.0000    0    15.999  109.613564   63.241575  108.324771
   8 C     6.0000    0    12.011  109.195935   61.561608  106.166704
   9 H     1.0000    0     1.008  107.948716   60.085732  106.941492
  10 C     6.0000    0    12.011  111.669586   60.441001  105.418372
  11 H     1.0000    0     1.008  112.580434   59.129531  106.724173
  12 C     6.0000    0    12.011  112.931923   61.225237  103.358571
  13 C     6.0000    0    12.011  111.786749   63.086617  101.655928
  14 H     1.0000    0     1.008  112.973497   63.778257  100.113911
  15 C     6.0000    0    12.011  109.407584   63.929435  101.971512
  16 H     1.0000    0     1.008  108.587443   65.325943  100.684608
  17 C     6.0000    0    12.011  107.723838   62.914652  104.023754
  18 H     1.0000    0     1.008  106.726063   64.505802  104.930823
  19 O     8.0000    0    15.999  105.939937   61.247914  102.855904
  20 H     1.0000    0     1.008  104.717284   60.754695  104.131469
  21 C     6.0000    0    12.011  115.571871   60.225572  102.821889
  22 O     8.0000    0    15.999  116.822870   59.395982  104.668151
  23 O     8.0000    0    15.999  116.305085   60.301161  100.569335

--------------------------------
INTERNAL COORDINATES (ANGSTROEM)
--------------------------------
 C      0   0   0     0.000000000000     0.00000000     0.00000000
 H      1   0   0     1.088316589968     0.00000000     0.00000000
 H      1   2   0     1.089607727579   118.94025798     0.00000000
 C      1   2   3     1.337619527369   122.31004356   179.20771339
 C      4   1   2     1.520288459471   122.24683007   179.89087730
 O      5   4   1     1.259587630933   117.63425722     6.60340064
 O      5   4   1     1.258070745229   116.55154335   186.17639195
 O      4   1   2     1.383299678305   122.40107542     1.44881622
 C      8   4   1     1.464010245866   117.91222845   279.63489026
 H      9   8   4     1.101662834083   103.33337678   178.38025161
 C      9   8   4     1.490619334371   108.43555339    61.60362327
 H     11   9   8     1.091531492903   118.19906191    67.21269472
 C     11   9   8     1.344079238736   121.94128185   255.41139657
 C     13  11   9     1.466036152351   120.02762379   354.87403008
 H     14  13  11     1.092792752538   116.51263779   174.51887446
 C     14  13  11     1.346063148593   122.20792930   355.09749972
 H     16  14  13     1.094640580282   121.15379308   179.74991252
 C     16  14  13     1.503876989650   121.69699597   356.91820957
 H     18  16  14     1.103697422304   108.97035022   136.47088176
 O     18  16  14     1.432125692808   107.38699849   255.60062320
 H     20  18  16     0.970749710276   107.74942871   187.10015841
 C     13  11   9     1.520561080654   120.04350750   173.56175687
 O     22  13  11     1.259164008380   117.34817233   336.58807942
 O     22  13  11     1.254196156907   116.78463965   156.51054255

---------------------------
INTERNAL COORDINATES (A.U.)
---------------------------
 C      0   0   0     0.000000000000     0.00000000     0.00000000
 H      1   0   0     2.056620302043     0.00000000     0.00000000
 H      1   2   0     2.059060198529   118.94025798     0.00000000
 C      1   2   3     2.527734578113   122.31004356   179.20771339
 C      4   1   2     2.872928832961   122.24683007   179.89087730
 O      5   4   1     2.380275664138   117.63425722     6.60340064
 O      5   4   1     2.377409165580   116.55154335   186.17639195
 O      4   1   2     2.614057553139   122.40107542     1.44881622
 C      8   4   1     2.766578421941   117.91222845   279.63489026
 H      9   8   4     2.081841048337   103.33337678   178.38025161
 C      9   8   4     2.816862311889   108.43555339    61.60362327
 H     11   9   8     2.062695588138   118.19906191    67.21269472
 C     11   9   8     2.539941663500   121.94128185   255.41139657
 C     13  11   9     2.770406830371   120.02762379   354.87403008
 H     14  13  11     2.065079023431   116.51263779   174.51887446
 C     14  13  11     2.543690709804   122.20792930   355.09749972
 H     16  14  13     2.068570911810   121.15379308   179.74991252
 C     16  14  13     2.841915649545   121.69699597   356.91820957
 H     18  16  14     2.085685862869   108.97035022   136.47088176
 O     18  16  14     2.706325348759   107.38699849   255.60062320
 H     20  18  16     1.834451097004   107.74942871   187.10015841
 C     13  11   9     2.873444012336   120.04350750   173.56175687
 O     22  13  11     2.379475133529   117.34817233   336.58807942
 O     22  13  11     2.370087254771   116.78463965   156.51054255

---------------------
BASIS SET INFORMATION
---------------------
There are 3 groups of distinct atoms

 Group   1 Type C   : 7s4p1d contracted to 3s2p1d pattern {511/31/1}
 Group   2 Type H   : 4s1p contracted to 2s1p pattern {31/1}
 Group   3 Type O   : 7s4p1d contracted to 3s2p1d pattern {511/31/1}

Atom   0C    basis set group =>   1
Atom   1H    basis set group =>   2
Atom   2H    basis set group =>   2
Atom   3C    basis set group =>   1
Atom   4C    basis set group =>   1
Atom   5O    basis set group =>   3
Atom   6O    basis set group =>   3
Atom   7O    basis set group =>   3
Atom   8C    basis set group =>   1
Atom   9H    basis set group =>   2
Atom  10C    basis set group =>   1
Atom  11H    basis set group =>   2
Atom  12C    basis set group =>   1
Atom  13C    basis set group =>   1
Atom  14H    basis set group =>   2
Atom  15C    basis set group =>   1
Atom  16H    basis set group =>   2
Atom  17C    basis set group =>   1
Atom  18H    basis set group =>   2
Atom  19O    basis set group =>   3
Atom  20H    basis set group =>   2
Atom  21C    basis set group =>   1
Atom  22O    basis set group =>   3
Atom  23O    basis set group =>   3
---------------------------------
AUXILIARY/J BASIS SET INFORMATION
---------------------------------
There are 3 groups of distinct atoms

 Group   1 Type C   : 12s5p4d2f1g contracted to 6s4p3d1f1g pattern {711111/2111/211/2/1}
 Group   2 Type H   : 5s2p1d contracted to 3s1p1d pattern {311/2/1}
 Group   3 Type O   : 12s5p4d2f1g contracted to 6s4p3d1f1g pattern {711111/2111/211/2/1}

Atom   0C    basis set group =>   1
Atom   1H    basis set group =>   2
Atom   2H    basis set group =>   2
Atom   3C    basis set group =>   1
Atom   4C    basis set group =>   1
Atom   5O    basis set group =>   3
Atom   6O    basis set group =>   3
Atom   7O    basis set group =>   3
Atom   8C    basis set group =>   1
Atom   9H    basis set group =>   2
Atom  10C    basis set group =>   1
Atom  11H    basis set group =>   2
Atom  12C    basis set group =>   1
Atom  13C    basis set group =>   1
Atom  14H    basis set group =>   2
Atom  15C    basis set group =>   1
Atom  16H    basis set group =>   2
Atom  17C    basis set group =>   1
Atom  18H    basis set group =>   2
Atom  19O    basis set group =>   3
Atom  20H    basis set group =>   2
Atom  21C    basis set group =>   1
Atom  22O    basis set group =>   3
Atom  23O    basis set group =>   3

Checking for AutoStart:
The File: react_cpcm.gbw exists
Trying to determine its content:
     ... Fine, the file contains calculation information
     ... Fine, the calculation information was read
     ... Fine, the file contains a basis set
     ... Fine, the basis set was read
     ... Fine, the file contains a geometry
     ... Fine, the geometry was read
     ... Fine, the file contains a set of orbitals
     ... Fine, the orbitals can be read
     => possible old guess file was deleted
     => GBW file was renamed to GES file
     => GES file is set as startup file
     => Guess is set to MORead
     ... now leaving AutoStart



           ************************************************************
           *        Program running with 8 parallel MPI-processes     *
           *              working on a common directory               *
           ************************************************************
------------------------------------------------------------------------------
                             ORCA STARTUP CALCULATIONS
                           -- RI-GTO INTEGRALS CHOSEN --
------------------------------------------------------------------------------
------------------------------------------------------------------------------
                   ___                                                        
                  /   \      - P O W E R E D   B Y -                         
                 /     \                                                     
                 |  |  |   _    _      __       _____    __    __             
                 |  |  |  | |  | |    /  \     |  _  \  |  |  /  |          
                  \  \/   | |  | |   /    \    | | | |  |  | /  /          
                 / \  \   | |__| |  /  /\  \   | |_| |  |  |/  /          
                |  |  |   |  __  | /  /__\  \  |    /   |      \           
                |  |  |   | |  | | |   __   |  |    \   |  |\   \          
                \     /   | |  | | |  |  |  |  | |\  \  |  | \   \       
                 \___/    |_|  |_| |__|  |__|  |_| \__\ |__|  \__/        
                                                                              
                      - O R C A' S   B I G   F R I E N D -                    
                                      &                                       
                       - I N T E G R A L  F E E D E R -                       
                                                                              
 v1 FN, 2020, v2 2021, v3 2022-2024                                           
------------------------------------------------------------------------------


----------------------
SHARK INTEGRAL PACKAGE
----------------------

Number of atoms                             ...     24
Number of basis functions                   ...    264
Number of shells                            ...    120
Maximum angular momentum                    ...      2
Integral batch strategy                     ... SHARK/LIBINT Hybrid
RI-J (if used) integral strategy            ... SPLIT-RIJ (Revised 2003 algorithm where possible)
Printlevel                                  ...      1
Contraction scheme used                     ... SEGMENTED contraction
Prescreening option                         ... SCHWARTZ
   Thresh                                   ... 1.000e-10
   Tcut                                     ... 1.000e-11
   Tpresel                                  ... 1.000e-11 
Coulomb Range Separation                    ... NOT USED
Exchange Range Separation                   ... NOT USED
Multipole approximations                    ... NOT USED
Finite Nucleus Model                        ... NOT USED
CABS basis                                  ... NOT available
Auxiliary Coulomb fitting basis             ... AVAILABLE
   # of basis functions in Aux-J            ...    872
   # of shells in Aux-J                     ...    280
   Maximum angular momentum in Aux-J        ...      4
Auxiliary J/K fitting basis                 ... NOT available
Auxiliary Correlation fitting basis         ... NOT available
Auxiliary 'external' fitting basis          ... NOT available

Checking pre-screening integrals            ... done (  0.0 sec) Dimension = 120
Check shell pair data                       ... done (  0.0 sec)
Shell pair information
Shell pair cut-off parameter TPreSel        ...   1.0e-11
Total number of shell pairs                 ...      7260
Shell pairs after pre-screening             ...      6182
Total number of primitive shell pairs       ...     27260
Primitive shell pairs kept                  ...     15298
          la=0 lb=0:   1764 shell pairs
          la=1 lb=0:   2230 shell pairs
          la=1 lb=1:    743 shell pairs
          la=2 lb=0:    812 shell pairs
          la=2 lb=1:    532 shell pairs
          la=2 lb=2:    101 shell pairs

Calculating one electron integrals          ... done (  0.0 sec)
Calculating RI/J V-Matrix + Cholesky decomp.... done (  0.2 sec)
Calculating Nuclear repulsion               ... done (  0.0 sec) ENN=   1103.923089196936 Eh

Diagonalization of the overlap matrix:
Smallest eigenvalue                        ... 4.374e-04
Time for diagonalization                   ...    0.009 sec
Threshold for overlap eigenvalues          ... 1.000e-07
Number of eigenvalues below threshold      ... 0
Time for construction of square roots      ...    0.014 sec
Total time needed                          ...    0.036 sec

-------------------
DFT GRID GENERATION
-------------------

General Integration Accuracy     IntAcc      ... 4.388
Radial Grid Type                 RadialGrid  ... OptM3 with GC (2021)
Angular Grid (max. ang.)         AngularGrid ... 4 (Lebedev-302)
Angular grid pruning method      GridPruning ... 4 (adaptive)
Weight generation scheme         WeightScheme... mBecke (2022)
Basis function cutoff            BFCut       ... 1.0000e-10
Integration weight cutoff        WCut        ... 1.0000e-14
Partially contracted basis set               ... off
Rotationally invariant grid construction     ... off
Angular grids for H and He will be reduced by one unit

Total number of grid points                  ...   121676
Total number of batches                      ...     1915
Average number of points per batch           ...       63
Average number of grid points per atom       ...     5070

--------------------
COSX GRID GENERATION
--------------------

GRIDX 1
-------
General Integration Accuracy     IntAcc      ... 3.816
Radial Grid Type                 RadialGrid  ... OptM3 with GC (2021)
Angular Grid (max. ang.)         AngularGrid ... 1 (Lebedev-50)
Angular grid pruning method      GridPruning ... 4 (adaptive)
Weight generation scheme         WeightScheme... mBecke (2022)
Basis function cutoff            BFCut       ... 1.0000e-10
Integration weight cutoff        WCut        ... 1.0000e-14
Partially contracted basis set               ... on
Rotationally invariant grid construction     ... off
Angular grids for H and He will be reduced by one unit

Total number of grid points                  ...    15406
Total number of batches                      ...      135
Average number of points per batch           ...      114
Average number of grid points per atom       ...      642
UseSFitting                                  ... on

GRIDX 2
-------
General Integration Accuracy     IntAcc      ... 4.020
Radial Grid Type                 RadialGrid  ... OptM3 with GC (2021)
Angular Grid (max. ang.)         AngularGrid ... 2 (Lebedev-110)
Angular grid pruning method      GridPruning ... 4 (adaptive)
Weight generation scheme         WeightScheme... mBecke (2022)
Basis function cutoff            BFCut       ... 1.0000e-10
Integration weight cutoff        WCut        ... 1.0000e-14
Partially contracted basis set               ... on
Rotationally invariant grid construction     ... off
Angular grids for H and He will be reduced by one unit

Total number of grid points                  ...    34451
Total number of batches                      ...      281
Average number of points per batch           ...      122
Average number of grid points per atom       ...     1435
UseSFitting                                  ... on

GRIDX 3
-------
General Integration Accuracy     IntAcc      ... 4.338
Radial Grid Type                 RadialGrid  ... OptM3 with GC (2021)
Angular Grid (max. ang.)         AngularGrid ... 3 (Lebedev-194)
Angular grid pruning method      GridPruning ... 4 (adaptive)
Weight generation scheme         WeightScheme... mBecke (2022)
Basis function cutoff            BFCut       ... 1.0000e-10
Integration weight cutoff        WCut        ... 1.0000e-14
Partially contracted basis set               ... on
Rotationally invariant grid construction     ... off
Angular grids for H and He will be reduced by one unit

Total number of grid points                  ...    75643
Total number of batches                      ...      603
Average number of points per batch           ...      125
Average number of grid points per atom       ...     3152
UseSFitting                                  ... on
Initializing property integral containers    ... done (  0.0 sec)

SHARK setup successfully completed in   2.4 seconds

Maximum memory used throughout the entire STARTUP-calculation: 33.7 MB


           ************************************************************
           *        Program running with 8 parallel MPI-processes     *
           *              working on a common directory               *
           ************************************************************
-------------------------------------------------------------------------------
                                 ORCA GUESS
                   Start orbitals & Density for SCF / CASSCF
-------------------------------------------------------------------------------

------------
SCF SETTINGS
------------
Hamiltonian:
 Density Functional     Method          .... DFT(GTOs)
 Exchange Functional    Exchange        .... B88
   X-Alpha parameter    XAlpha          ....  0.666667
   Becke's b parameter  XBeta           ....  0.004200
 Correlation Functional Correlation     .... LYP
 LDA part of GGA corr.  LDAOpt          .... VWN-5
 Gradients option       PostSCFGGA      .... off
 Hybrid DFT is turned on
   Fraction HF Exchange ScalHFX         ....  0.200000
   Scaling of DF-GGA-X  ScalDFX         ....  0.720000
   Scaling of DF-GGA-C  ScalDFC         ....  0.810000
   Scaling of DF-LDA-C  ScalLDAC        ....  1.000000
   Perturbative correction              ....  0.000000
   NL short-range parameter             ....  4.800000
 RI-approximation to the Coulomb term is turned on
   Number of AuxJ basis functions       .... 872
   RIJ-COSX (HFX calculated with COS-X)).... on


General Settings:
 Integral files         IntName         .... react_cpcm
 Hartree-Fock type      HFTyp           .... RHF
 Total Charge           Charge          ....   -2
 Multiplicity           Mult            ....    1
 Number of Electrons    NEL             ....  118
 Basis Dimension        Dim             ....  264
 Nuclear Repulsion      ENuc            ....   1103.9230891969 Eh

Convergence Acceleration:
 AO-DIIS                CNVDIIS         .... on
   Start iteration      DIISMaxIt       ....    12
   Startup error        DIISStart       ....  0.200000
   # of expansion vecs  DIISMaxEq       ....     5
   Bias factor          DIISBfac        ....   1.050
   Max. coefficient     DIISMaxC        ....  10.000
 MO-DIIS                CNVKDIIS        .... off
 Trust-Rad. Augm. Hess. CNVTRAH         .... auto
   Auto Start mean grad. ratio tolernc. ....  1.125000
   Auto Start start iteration           ....     1
   Auto Start num. interpolation iter.  ....    10
   Max. Number of Micro iterations      ....    24
   Max. Number of Macro iterations      .... Maxiter - #DIIS iter
   Number of Davidson start vectors     ....     2
   Converg. threshold    (grad. norm)   ....   5.000e-05
   Grad. Scal. Fac. for Micro threshold ....   0.100
   Minimum threshold for Micro iter.    ....   1.000e-02
   NR start threshold (gradient norm)   ....   1.000e-04
   Initial trust radius                 ....   0.400
   Minimum AH scaling param. (alpha)    ....   1.000
   Maximum AH scaling param. (alpha)    .... 1000.000
   Quad. conv. algorithm                .... NR
   White noise on init. David. guess    .... on
   Maximum white noise                  ....   0.010
   Pseudo random numbers                .... off
   Inactive MOs                         .... canonical
   Orbital update algorithm             .... Taylor
   Preconditioner                       .... Diag
   Full preconditioner red. dimension   ....   250
 SOSCF                  CNVSOSCF        .... on
   Start iteration      SOSCFMaxIt      ....   150
   Startup grad/error   SOSCFStart      ....  0.003300
   Hessian update       SOSCFHessUp     .... L-BFGS
 Level Shifting         CNVShift        .... on
   Level shift para.    LevelShift      ....    0.2500
   Turn off err/grad.   ShiftErr        ....    0.0010
 Zerner damping         CNVZerner       .... off
 Static damping         CNVDamp         .... on
   Fraction old density DampFac         ....    0.7000
   Max. Damping (<1)    DampMax         ....    0.9800
   Min. Damping (>=0)   DampMin         ....    0.0000
   Turn off err/grad.   DampErr         ....    0.1000

SCF Procedure:
 Maximum # iterations   MaxIter         ....   300
 SCF integral mode      SCFMode         .... Direct
   Integral package                     .... SHARK and LIBINT hybrid scheme
 Reset frequency        DirectResetFreq ....    20
 Integral Threshold     Thresh          ....  1.000e-10 Eh
 Primitive CutOff       TCut            ....  1.000e-11 Eh

Convergence Tolerance:
 Convergence Check Mode ConvCheckMode   .... Total+1el-Energy
 Convergence forced     ConvForced      .... 0
 Energy Change          TolE            ....  1.000e-06 Eh
 1-El. energy change                    ....  1.000e-03 Eh
 Orbital Gradient       TolG            ....  5.000e-05
 Orbital Rotation angle TolX            ....  5.000e-05
 DIIS Error             TolErr          ....  1.000e-06

---------------------
INITIAL GUESS: MOREAD
---------------------
Guess MOs are being read from file: react_cpcm.ges
Input Geometry matches current geometry (good)
Input basis set matches current basis set (good)
Occupation numbers will be reassigned to an Aufbau configuration
MOs were renormalized
MOs were reorthogonalized (Cholesky)
                      ------------------
                      INITIAL GUESS DONE (   0.1 sec)
                      ------------------
             **** ENERGY FILE WAS UPDATED (react_cpcm.en.tmp) ****
Finished Guess after   0.7 sec
Maximum memory used throughout the entire GUESS-calculation: 14.7 MB


           ************************************************************
           *        Program running with 8 parallel MPI-processes     *
           *              working on a common directory               *
           ************************************************************

-------------------------------------------------------------------------------------------
                                      ORCA LEAN-SCF
                              memory conserving SCF solver
-------------------------------------------------------------------------------------------

--------------------
CPCM SOLVATION MODEL
--------------------
CPCM parameters:
  Epsilon                                         ...       4.0000
  Refrac                                          ...       1.3300
  Rsolv                                           ...       1.3000
  Surface type                                    ... GAUSSIAN VDW
  Discretization scheme                           ... Constant charge density
    Threshold for H atoms                         ...       5.0000 (charges/Ang^2)
    Threshold for non-H atoms                     ...       5.0000 (charges/Ang^2)
  Epsilon function type                           ...         CPCM
Solvent:                                          ... CUSTOM
Radii:
  Scheme                                          ... Element-dependent radii
  Radius for C  used is    3.8550 Bohr (=   2.0400 Ang.)
  Radius for H  used is    2.4944 Bohr (=   1.3200 Ang.)
  Radius for O  used is    3.4469 Bohr (=   1.8240 Ang.)
Calculating surface                               ...        done! (  0.0s)
Cavity surface points                             ...         2144
Cavity Volume                                     ...    1720.9931
Cavity Surface-area                               ...     871.4365
Calculating surface distance matrix               ...        done! (  0.0s)
Performing Cholesky decomposition & store         ...        done! (  0.4s)
Overall time for CPCM initialization              ...                 0.5s

----------------------------------------D-I-I-S--------------------------------------------
Iteration    Energy (Eh)           Delta-E    RMSDP     MaxDP     DIISErr   Damp  Time(sec)
-------------------------------------------------------------------------------------------
               ***  Starting incremental Fock matrix formation  ***
                              *** Initializing SOSCF ***
---------------------------------------S-O-S-C-F--------------------------------------
Iteration    Energy (Eh)           Delta-E    RMSDP     MaxDP     MaxGrad    Time(sec)
--------------------------------------------------------------------------------------
    1    -836.3176120954144608     0.00e+00  2.73e-06  8.40e-05  8.65e-06     2.7
               *** Restarting incremental Fock matrix formation ***
    2    -836.3176120908124176     4.60e-09  4.24e-06  1.52e-04  2.56e-05     2.6
    3    -836.3176120138859915     7.69e-08  3.02e-06  1.10e-04  6.25e-05     1.4
                 **** Energy Check signals convergence ****

               *****************************************************
               *                     SUCCESS                       *
               *           SCF CONVERGED AFTER   3 CYCLES          *
               *****************************************************

Recomputing exchange energy using gridx3       ... done (    3.226 sec)
Old exchange energy                            :    -20.894908055 Eh
New exchange energy                            :    -20.894965619 Eh
Exchange energy change after final integration :     -0.000057564 Eh
Total energy after final integration           :   -836.317669578 Eh
             **** ENERGY FILE WAS UPDATED (react_cpcm.en.tmp) ****

----------------
TOTAL SCF ENERGY
----------------

Total Energy       :       -836.31766957804484 Eh          -22757.36075 eV

Components:
Nuclear Repulsion  :       1103.92308919693619 Eh           30039.27442 eV
Electronic Energy  :      -1940.01957500392882 Eh          -52790.61646 eV
One Electron Energy:      -3372.73141743304950 Eh          -91776.68770 eV
Two Electron Energy:       1432.71184242912068 Eh           38986.07125 eV
CPCM Dielectric    :         -0.22112620689343 Eh              -6.01715 eV

Virial components:
Potential Energy   :      -1665.81547236396318 Eh          -45329.14349 eV
Kinetic Energy     :        829.49780278591834 Eh           22571.78274 eV
Virial Ratio       :          2.00822168156350

DFT components:
N(Alpha)           :       59.000011750403 electrons
N(Beta)            :       59.000011750403 electrons
N(Total)           :      118.000023500807 electrons
E(X)               :      -83.152257491505 Eh       
E(C)               :       -4.847476285078 Eh       
E(XC)              :      -87.999733776584 Eh       

CPCM Solvation Model Properties:
Surface-charge          :          1.98297046214424
Corrected charge        :          2.00000000000000
Outlying charge corr.   :          0.00001379732188 Eh               0.00038 eV
Free-energy (cav+disp)  :  This term is not implemented in the current solvation scheme

---------------
SCF CONVERGENCE
---------------

  Last Energy change         ...   -7.6926e-08  Tolerance :   1.0000e-06
  Last MAX-Density change    ...    1.1045e-04  Tolerance :   1.0000e-05
  Last RMS-Density change    ...    3.0184e-06  Tolerance :   1.0000e-06
  Last DIIS Error            ...    6.2996e-05  Tolerance :   1.0000e-06
  Last Orbital Gradient      ...    6.2519e-05  Tolerance :   5.0000e-05
  Last Orbital Rotation      ...    5.4436e-05  Tolerance :   5.0000e-05


----------------
ORBITAL ENERGIES
----------------

  NO   OCC          E(Eh)            E(eV) 
   0   2.0000     -19.068961      -518.8928 
   1   2.0000     -19.066872      -518.8360 
   2   2.0000     -18.974727      -516.3286 
   3   2.0000     -18.972657      -516.2722 
   4   2.0000     -18.972050      -516.2557 
   5   2.0000     -18.969810      -516.1948 
   6   2.0000     -10.172244      -276.8008 
   7   2.0000     -10.172231      -276.8005 
   8   2.0000     -10.170012      -276.7401 
   9   2.0000     -10.163965      -276.5755 
  10   2.0000     -10.147030      -276.1147 
  11   2.0000     -10.119005      -275.3521 
  12   2.0000     -10.117558      -275.3128 
  13   2.0000     -10.107676      -275.0438 
  14   2.0000     -10.106767      -275.0191 
  15   2.0000     -10.096821      -274.7485 
  16   2.0000      -0.957368       -26.0513 
  17   2.0000      -0.940761       -25.5994 
  18   2.0000      -0.913162       -24.8484 
  19   2.0000      -0.906107       -24.6564 
  20   2.0000      -0.821277       -22.3481 
  21   2.0000      -0.817831       -22.2543 
  22   2.0000      -0.753282       -20.4979 
  23   2.0000      -0.683497       -18.5989 
  24   2.0000      -0.666448       -18.1350 
  25   2.0000      -0.637886       -17.3578 
  26   2.0000      -0.560252       -15.2452 
  27   2.0000      -0.528389       -14.3782 
  28   2.0000      -0.509155       -13.8548 
  29   2.0000      -0.466457       -12.6930 
  30   2.0000      -0.450943       -12.2708 
  31   2.0000      -0.426621       -11.6090 
  32   2.0000      -0.414555       -11.2806 
  33   2.0000      -0.401090       -10.9142 
  34   2.0000      -0.376584       -10.2474 
  35   2.0000      -0.370775       -10.0893 
  36   2.0000      -0.356987        -9.7141 
  37   2.0000      -0.352023        -9.5790 
  38   2.0000      -0.342726        -9.3260 
  39   2.0000      -0.324090        -8.8189 
  40   2.0000      -0.313018        -8.5177 
  41   2.0000      -0.311127        -8.4662 
  42   2.0000      -0.303598        -8.2613 
  43   2.0000      -0.301109        -8.1936 
  44   2.0000      -0.297712        -8.1012 
  45   2.0000      -0.284903        -7.7526 
  46   2.0000      -0.280377        -7.6294 
  47   2.0000      -0.252469        -6.8700 
  48   2.0000      -0.244420        -6.6510 
  49   2.0000      -0.224087        -6.0977 
  50   2.0000      -0.200631        -5.4595 
  51   2.0000      -0.170957        -4.6520 
  52   2.0000      -0.161071        -4.3830 
  53   2.0000      -0.153627        -4.1804 
  54   2.0000      -0.150087        -4.0841 
  55   2.0000      -0.148067        -4.0291 
  56   2.0000      -0.144714        -3.9379 
  57   2.0000      -0.132914        -3.6168 
  58   2.0000      -0.128456        -3.4955 
  59   0.0000       0.023564         0.6412 
  60   0.0000       0.067700         1.8422 
  61   0.0000       0.106637         2.9017 
  62   0.0000       0.129260         3.5174 
  63   0.0000       0.152627         4.1532 
  64   0.0000       0.160990         4.3808 
  65   0.0000       0.177246         4.8231 
  66   0.0000       0.188644         5.1333 
  67   0.0000       0.200290         5.4502 
  68   0.0000       0.211474         5.7545 
  69   0.0000       0.216445         5.8898 
*Only the first 10 virtual orbitals were printed.

                    ********************************
                    * MULLIKEN POPULATION ANALYSIS *
                    ********************************

-----------------------
MULLIKEN ATOMIC CHARGES
-----------------------
   0 C :   -0.014600
   1 H :   -0.004423
   2 H :   -0.011386
   3 C :    0.012263
   4 C :    0.069953
   5 O :   -0.431380
   6 O :   -0.429985
   7 O :   -0.380360
   8 C :    0.239522
   9 H :   -0.033237
  10 C :   -0.103280
  11 H :   -0.034440
  12 C :   -0.008443
  13 C :    0.019467
  14 H :   -0.039602
  15 C :   -0.062557
  16 H :   -0.018343
  17 C :    0.230282
  18 H :   -0.015375
  19 O :   -0.350619
  20 H :    0.173025
  21 C :    0.058269
  22 O :   -0.435399
  23 O :   -0.429351
Sum of atomic charges:   -2.0000000

--------------------------------
MULLIKEN REDUCED ORBITAL CHARGES
--------------------------------
  0 C s       :     3.097710  s :     3.097710
      pz      :     1.033037  p :     2.892219
      px      :     1.007583
      py      :     0.851599
      dz2     :     0.001608  d :     0.024671
      dxz     :     0.005361
      dyz     :     0.000433
      dx2y2   :     0.008158
      dxy     :     0.009112

  1 H s       :     0.980534  s :     0.980534
      pz      :     0.005086  p :     0.023888
      px      :     0.006193
      py      :     0.012610

  2 H s       :     0.986942  s :     0.986942
      pz      :     0.005126  p :     0.024443
      px      :     0.006877
      py      :     0.012441

  3 C s       :     3.161576  s :     3.161576
      pz      :     0.987432  p :     2.757964
      px      :     0.880925
      py      :     0.889607
      dz2     :     0.004894  d :     0.068197
      dxz     :     0.010487
      dyz     :     0.006897
      dx2y2   :     0.021551
      dxy     :     0.024368

  4 C s       :     3.037003  s :     3.037003
      pz      :     0.868500  p :     2.754265
      px      :     0.932865
      py      :     0.952899
      dz2     :     0.008697  d :     0.138779
      dxz     :     0.027132
      dyz     :     0.012561
      dx2y2   :     0.043536
      dxy     :     0.046853

  5 O s       :     3.713360  s :     3.713360
      pz      :     1.542365  p :     4.704250
      px      :     1.646224
      py      :     1.515661
      dz2     :     0.001755  d :     0.013771
      dxz     :     0.001485
      dyz     :     0.002874
      dx2y2   :     0.002952
      dxy     :     0.004705

  6 O s       :     3.733348  s :     3.733348
      pz      :     1.547361  p :     4.682893
      px      :     1.343718
      py      :     1.791814
      dz2     :     0.001662  d :     0.013744
      dxz     :     0.003965
      dyz     :     0.000078
      dx2y2   :     0.005229
      dxy     :     0.002810

  7 O s       :     3.745758  s :     3.745758
      pz      :     1.537804  p :     4.619970
      px      :     1.678486
      py      :     1.403680
      dz2     :     0.003278  d :     0.014632
      dxz     :     0.002157
      dyz     :     0.003734
      dx2y2   :     0.001991
      dxy     :     0.003471

  8 C s       :     2.975201  s :     2.975201
      pz      :     0.845595  p :     2.720751
      px      :     0.988334
      py      :     0.886821
      dz2     :     0.012819  d :     0.064526
      dxz     :     0.012954
      dyz     :     0.017245
      dx2y2   :     0.008262
      dxy     :     0.013246

  9 H s       :     1.012810  s :     1.012810
      pz      :     0.004070  p :     0.020427
      px      :     0.007765
      py      :     0.008592

 10 C s       :     3.247716  s :     3.247716
      pz      :     0.962924  p :     2.822226
      px      :     0.944493
      py      :     0.914809
      dz2     :     0.006900  d :     0.033338
      dxz     :     0.008880
      dyz     :     0.006307
      dx2y2   :     0.004866
      dxy     :     0.006385

 11 H s       :     1.011431  s :     1.011431
      pz      :     0.007994  p :     0.023009
      px      :     0.006467
      py      :     0.008547

 12 C s       :     3.137810  s :     3.137810
      pz      :     0.911605  p :     2.830963
      px      :     0.967297
      py      :     0.952061
      dz2     :     0.009221  d :     0.039670
      dxz     :     0.009306
      dyz     :     0.007260
      dx2y2   :     0.006868
      dxy     :     0.007015

 13 C s       :     3.215675  s :     3.215675
      pz      :     0.878200  p :     2.729866
      px      :     0.886227
      py      :     0.965439
      dz2     :     0.005036  d :     0.034991
      dxz     :     0.009672
      dyz     :     0.004728
      dx2y2   :     0.007558
      dxy     :     0.007996

 14 H s       :     1.016696  s :     1.016696
      pz      :     0.010077  p :     0.022907
      px      :     0.007886
      py      :     0.004944

 15 C s       :     3.188876  s :     3.188876
      pz      :     0.949073  p :     2.840557
      px      :     0.959315
      py      :     0.932168
      dz2     :     0.003721  d :     0.033124
      dxz     :     0.010042
      dyz     :     0.005183
      dx2y2   :     0.006640
      dxy     :     0.007538

 16 H s       :     0.995624  s :     0.995624
      pz      :     0.007977  p :     0.022719
      px      :     0.005336
      py      :     0.009405

 17 C s       :     2.948659  s :     2.948659
      pz      :     0.945207  p :     2.753992
      px      :     0.908790
      py      :     0.899996
      dz2     :     0.009305  d :     0.067067
      dxz     :     0.016696
      dyz     :     0.014201
      dx2y2   :     0.010764
      dxy     :     0.016101

 18 H s       :     0.992795  s :     0.992795
      pz      :     0.006829  p :     0.022580
      px      :     0.004834
      py      :     0.010917

 19 O s       :     3.733876  s :     3.733876
      pz      :     1.541002  p :     4.604583
      px      :     1.409590
      py      :     1.653991
      dz2     :     0.001892  d :     0.012160
      dxz     :     0.004739
      dyz     :     0.002676
      dx2y2   :     0.001303
      dxy     :     0.001551

 20 H s       :     0.760654  s :     0.760654
      pz      :     0.023568  p :     0.066321
      px      :     0.024538
      py      :     0.018215

 21 C s       :     3.035591  s :     3.035591
      pz      :     0.930146  p :     2.766554
      px      :     0.953223
      py      :     0.883184
      dz2     :     0.044692  d :     0.139586
      dxz     :     0.040717
      dyz     :     0.032732
      dx2y2   :     0.011222
      dxy     :     0.010224

 22 O s       :     3.725866  s :     3.725866
      pz      :     1.514527  p :     4.695776
      px      :     1.640099
      py      :     1.541151
      dz2     :     0.003032  d :     0.013757
      dxz     :     0.004346
      dyz     :     0.003169
      dx2y2   :     0.001576
      dxy     :     0.001633

 23 O s       :     3.719693  s :     3.719693
      pz      :     1.392304  p :     4.695675
      px      :     1.722301
      py      :     1.581070
      dz2     :     0.005848  d :     0.013983
      dxz     :     0.003823
      dyz     :     0.003462
      dx2y2   :     0.000379
      dxy     :     0.000471



                     *******************************
                     * LOEWDIN POPULATION ANALYSIS *
                     *******************************

----------------------
LOEWDIN ATOMIC CHARGES
----------------------
   0 C :   -0.087702
   1 H :    0.012098
   2 H :    0.015557
   3 C :   -0.017769
   4 C :   -0.060020
   5 O :   -0.403430
   6 O :   -0.393596
   7 O :   -0.160415
   8 C :    0.074098
   9 H :    0.017590
  10 C :   -0.036067
  11 H :    0.011218
  12 C :   -0.070557
  13 C :   -0.020937
  14 H :    0.018266
  15 C :   -0.047165
  16 H :    0.018544
  17 C :    0.052130
  18 H :    0.008902
  19 O :   -0.166846
  20 H :    0.077897
  21 C :   -0.046642
  22 O :   -0.402347
  23 O :   -0.392806

-------------------------------
LOEWDIN REDUCED ORBITAL CHARGES
-------------------------------
  0 C s       :     2.890084  s :     2.890084
      pz      :     1.014375  p :     3.130139
      px      :     1.076181
      py      :     1.039583
      dz2     :     0.005052  d :     0.067479
      dxz     :     0.010807
      dyz     :     0.000930
      dx2y2   :     0.023283
      dxy     :     0.027406

  1 H s       :     0.916050  s :     0.916050
      pz      :     0.016444  p :     0.071851
      px      :     0.017897
      py      :     0.037510

  2 H s       :     0.912283  s :     0.912283
      pz      :     0.016557  p :     0.072160
      px      :     0.018970
      py      :     0.036633

  3 C s       :     2.897685  s :     2.897685
      pz      :     0.965372  p :     2.957177
      px      :     1.049617
      py      :     0.942188
      dz2     :     0.012232  d :     0.162908
      dxz     :     0.022062
      dyz     :     0.013864
      dx2y2   :     0.054809
      dxy     :     0.059940

  4 C s       :     2.861931  s :     2.861931
      pz      :     0.852364  p :     2.874521
      px      :     1.012506
      py      :     1.009651
      dz2     :     0.020213  d :     0.323568
      dxz     :     0.055109
      dyz     :     0.025868
      dx2y2   :     0.105914
      dxy     :     0.116463

  5 O s       :     3.570472  s :     3.570472
      pz      :     1.542504  p :     4.808361
      px      :     1.691293
      py      :     1.574564
      dz2     :     0.003427  d :     0.024596
      dxz     :     0.002245
      dyz     :     0.004166
      dx2y2   :     0.005192
      dxy     :     0.009566

  6 O s       :     3.569273  s :     3.569273
      pz      :     1.541870  p :     4.799593
      px      :     1.462343
      py      :     1.795380
      dz2     :     0.003674  d :     0.024731
      dxz     :     0.005264
      dyz     :     0.000105
      dx2y2   :     0.011116
      dxy     :     0.004572

  7 O s       :     3.464149  s :     3.464149
      pz      :     1.553238  p :     4.668775
      px      :     1.682204
      py      :     1.433333
      dz2     :     0.005652  d :     0.027491
      dxz     :     0.003315
      dyz     :     0.007487
      dx2y2   :     0.004209
      dxy     :     0.006827

  8 C s       :     2.860298  s :     2.860298
      pz      :     0.913355  p :     2.916716
      px      :     1.056655
      py      :     0.946706
      dz2     :     0.028302  d :     0.148889
      dxz     :     0.030526
      dyz     :     0.040008
      dx2y2   :     0.017974
      dxy     :     0.032080

  9 H s       :     0.918461  s :     0.918461
      pz      :     0.013954  p :     0.063949
      px      :     0.022999
      py      :     0.026996

 10 C s       :     2.877440  s :     2.877440
      pz      :     1.044739  p :     3.070080
      px      :     1.020086
      py      :     1.005256
      dz2     :     0.017397  d :     0.088547
      dxz     :     0.025317
      dyz     :     0.016979
      dx2y2   :     0.012700
      dxy     :     0.016154

 11 H s       :     0.916417  s :     0.916417
      pz      :     0.023458  p :     0.072364
      px      :     0.022025
      py      :     0.026882

 12 C s       :     2.888883  s :     2.888883
      pz      :     1.038886  p :     3.076797
      px      :     1.053341
      py      :     0.984570
      dz2     :     0.023461  d :     0.104877
      dxz     :     0.025892
      dyz     :     0.019635
      dx2y2   :     0.018189
      dxy     :     0.017699

 13 C s       :     2.870445  s :     2.870445
      pz      :     1.004257  p :     3.058724
      px      :     1.063331
      py      :     0.991136
      dz2     :     0.012843  d :     0.091768
      dxz     :     0.026107
      dyz     :     0.011386
      dx2y2   :     0.019962
      dxy     :     0.021470

 14 H s       :     0.912663  s :     0.912663
      pz      :     0.030036  p :     0.069071
      px      :     0.023509
      py      :     0.015526

 15 C s       :     2.879693  s :     2.879693
      pz      :     1.001270  p :     3.081658
      px      :     1.068499
      py      :     1.011889
      dz2     :     0.010257  d :     0.085814
      dxz     :     0.026393
      dyz     :     0.012282
      dx2y2   :     0.017113
      dxy     :     0.019768

 16 H s       :     0.912782  s :     0.912782
      pz      :     0.024965  p :     0.068675
      px      :     0.016052
      py      :     0.027658

 17 C s       :     2.849269  s :     2.849269
      pz      :     1.019564  p :     2.945633
      px      :     0.953331
      py      :     0.972739
      dz2     :     0.018577  d :     0.152967
      dxz     :     0.041841
      dyz     :     0.034307
      dx2y2   :     0.022020
      dxy     :     0.036221

 18 H s       :     0.916979  s :     0.916979
      pz      :     0.020488  p :     0.074119
      px      :     0.017109
      py      :     0.036522

 19 O s       :     3.458051  s :     3.458051
      pz      :     1.592026  p :     4.685669
      px      :     1.438987
      py      :     1.654655
      dz2     :     0.002480  d :     0.023127
      dxz     :     0.009870
      dyz     :     0.004222
      dx2y2   :     0.002749
      dxy     :     0.003806

 20 H s       :     0.744313  s :     0.744313
      pz      :     0.067890  p :     0.177791
      px      :     0.062657
      py      :     0.047244

 21 C s       :     2.853086  s :     2.853086
      pz      :     1.017219  p :     2.868761
      px      :     0.982981
      py      :     0.868561
      dz2     :     0.113045  d :     0.324795
      dxz     :     0.094202
      dyz     :     0.069867
      dx2y2   :     0.024965
      dxy     :     0.022716

 22 O s       :     3.571204  s :     3.571204
      pz      :     1.590950  p :     4.806532
      px      :     1.666653
      py      :     1.548928
      dz2     :     0.005445  d :     0.024612
      dxz     :     0.008656
      dyz     :     0.005459
      dx2y2   :     0.002173
      dxy     :     0.002878

 23 O s       :     3.568021  s :     3.568021
      pz      :     1.493538  p :     4.799812
      px      :     1.726713
      py      :     1.579561
      dz2     :     0.011925  d :     0.024973
      dxz     :     0.007198
      dyz     :     0.004687
      dx2y2   :     0.000605
      dxy     :     0.000558



                      *****************************
                      * MAYER POPULATION ANALYSIS *
                      *****************************

  NA   - Mulliken gross atomic population
  ZA   - Total nuclear charge
  QA   - Mulliken gross atomic charge
  VA   - Mayer's total valence
  BVA  - Mayer's bonded valence
  FA   - Mayer's free valence

  ATOM       NA         ZA         QA         VA         BVA        FA
  0 C      6.0146     6.0000    -0.0146     3.8845     3.8845    -0.0000
  1 H      1.0044     1.0000    -0.0044     1.0129     1.0129     0.0000
  2 H      1.0114     1.0000    -0.0114     1.0189     1.0189    -0.0000
  3 C      5.9877     6.0000     0.0123     3.9086     3.9086    -0.0000
  4 C      5.9300     6.0000     0.0700     4.5112     4.5112     0.0000
  5 O      8.4314     8.0000    -0.4314     2.0680     2.0680     0.0000
  6 O      8.4300     8.0000    -0.4300     2.0392     2.0392     0.0000
  7 O      8.3804     8.0000    -0.3804     2.0829     2.0829     0.0000
  8 C      5.7605     6.0000     0.2395     3.8503     3.8503    -0.0000
  9 H      1.0332     1.0000    -0.0332     1.0005     1.0005    -0.0000
 10 C      6.1033     6.0000    -0.1033     3.9084     3.9084    -0.0000
 11 H      1.0344     1.0000    -0.0344     1.0266     1.0266    -0.0000
 12 C      6.0084     6.0000    -0.0084     3.6748     3.6748     0.0000
 13 C      5.9805     6.0000     0.0195     3.9028     3.9028     0.0000
 14 H      1.0396     1.0000    -0.0396     1.0175     1.0175     0.0000
 15 C      6.0626     6.0000    -0.0626     3.8436     3.8436     0.0000
 16 H      1.0183     1.0000    -0.0183     0.9848     0.9848     0.0000
 17 C      5.7697     6.0000     0.2303     3.8861     3.8861    -0.0000
 18 H      1.0154     1.0000    -0.0154     1.0769     1.0769    -0.0000
 19 O      8.3506     8.0000    -0.3506     2.0443     2.0443     0.0000
 20 H      0.8270     1.0000     0.1730     1.0140     1.0140     0.0000
 21 C      5.9417     6.0000     0.0583     4.5508     4.5508    -0.0000
 22 O      8.4354     8.0000    -0.4354     2.0447     2.0447    -0.0000
 23 O      8.4294     8.0000    -0.4294     2.0536     2.0536     0.0000

  Mayer bond orders larger than 0.100000
B(  0-C ,  1-H ) :   0.9142 B(  0-C ,  2-H ) :   0.9168 B(  0-C ,  3-C ) :   1.9471 
B(  3-C ,  4-C ) :   0.8445 B(  3-C ,  7-O ) :   1.0434 B(  4-C ,  5-O ) :   1.8777 
B(  4-C ,  6-O ) :   1.7859 B(  5-O ,  6-O ) :   0.1182 B(  6-O , 18-H ) :   0.1062 
B(  7-O ,  8-C ) :   0.9344 B(  8-C ,  9-H ) :   0.9020 B(  8-C , 10-C ) :   0.9800 
B(  8-C , 17-C ) :   0.9627 B( 10-C , 11-H ) :   0.9508 B( 10-C , 12-C ) :   1.7700 
B( 12-C , 13-C ) :   1.0771 B( 12-C , 21-C ) :   0.8444 B( 13-C , 14-H ) :   0.9761 
B( 13-C , 15-C ) :   1.7751 B( 15-C , 16-H ) :   0.9700 B( 15-C , 17-C ) :   0.9777 
B( 17-C , 18-H ) :   0.8876 B( 17-C , 19-O ) :   1.0342 B( 19-O , 20-H ) :   0.9708 
B( 21-C , 22-O ) :   1.8462 B( 21-C , 23-O ) :   1.8627 B( 22-O , 23-O ) :   0.1167 


-------
TIMINGS
-------

Total SCF time: 0 days 0 hours 0 min 11 sec 

Total time                  ....      11.348 sec
Sum of individual times     ....      11.178 sec  ( 98.5%)

SCF preparation             ....       1.176 sec  ( 10.4%)
Fock matrix formation       ....       9.557 sec  ( 84.2%)
  Startup                   ....       0.065 sec  (  0.7% of F)
  Split-RI-J                ....       0.526 sec  (  5.5% of F)
  Chain of spheres X        ....       7.238 sec  ( 75.7% of F)
  XC integration            ....       0.933 sec  (  9.8% of F)
    Basis function eval.    ....       0.226 sec  ( 24.2% of XC)
    Density eval.           ....       0.183 sec  ( 19.6% of XC)
    XC-Functional eval.     ....       0.049 sec  (  5.2% of XC)
    XC-Potential eval.      ....       0.215 sec  ( 23.0% of XC)
  CPCM terms                ....       0.641 sec  (  6.7% of F)
Diagonalization             ....       0.000 sec  (  0.0%)
Density matrix formation    ....       0.074 sec  (  0.7%)
Total Energy calculation    ....       0.050 sec  (  0.4%)
Population analysis         ....       0.071 sec  (  0.6%)
Orbital Transformation      ....       0.049 sec  (  0.4%)
Orbital Orthonormalization  ....       0.000 sec  (  0.0%)
DIIS solution               ....       0.063 sec  (  0.6%)
SOSCF solution              ....       0.137 sec  (  1.2%)
Finished LeanSCF after  11.5 sec

Maximum memory used throughout the entire LEANSCF-calculation: 30.8 MB


-------------------------------------------------------------------------------
                          DFT DISPERSION CORRECTION                            
                                                                               
                              DFTD3 V3.1  Rev 1                                
                          USING Becke-Johnson damping                          
-------------------------------------------------------------------------------
The B3LYP functional is recognized
Active option DFTDOPT                   ...         4   

molecular C6(AA) [au] = 6928.969403 


            DFT-D V3
 parameters
 s6 scaling factor         :     1.0000 
 a1 scaling factor         :     0.3981 
 s8 scaling factor         :     1.9889 
 a2 scaling factor         :     4.4211 
 ad hoc parameters k1-k3   :    16.0000     1.3333    -4.0000 

 Edisp/kcal,au: -32.621411126718  -0.051985522124 
 E6   /kcal   : -15.314209500 
 E8   /kcal   : -17.307201627 
 % E8         :  53.054730097 

-------------------------   ----------------
Dispersion correction           -0.051985522
-------------------------   ----------------


-------------------------   --------------------
FINAL SINGLE POINT ENERGY      -836.369655100169
-------------------------   --------------------



           ************************************************************
           *        Program running with 8 parallel MPI-processes     *
           *              working on a common directory               *
           ************************************************************

------------------------------------------------------------------------------
                              ORCA PROPERTY CALCULATIONS
------------------------------------------------------------------------------

GBWName                                 ... react_cpcm.gbw
Number of atoms                         ...     24
Number of basis functions               ...    264
Max core memory                         ...   3000 MB

Electric properties:
Dipole moment                           ... YES
Quadrupole moment                       ...  NO
Static polarizability (Dipole/Dipole)   ...  NO
Static polarizability (Dipole/Quad.)    ...  NO
Static polarizability (Quad./Quad.)     ...  NO
Static polarizability (Velocity)        ...  NO

Atomic electric properties:
Dipole moment                           ...  NO
Quadrupole moment                       ...  NO
Static polarizability                   ...  NO

Choice of electric origin               ... Center of mass
Position of electric origin             ...   111.239292    63.348598   105.039557

General magnetic properties:
Magnetizability                         ...  NO

EPR properties:
g-Tensor (aka g-matrix)                 ...  NO
Zero-Field splitting spin-orbit         ...  NO
Zero-field splitting spin-spin          ...  NO
Hyperfine couplings                     ...  NO (   0 nuclei)
Quadrupole couplings                    ...  NO (   0 nuclei)
Contact density                         ...  NO (   0 nuclei)

NMR properties:
Chemical shifts                         ...  NO (   0 nuclei)
Spin-rotation constants                 ...  NO (   0 nuclei)
Spin-spin couplings                     ...  NO (   0 nuclei,    0 pairs)

Choice of magnetic origin               ... GIAO
Position of magnetic origin             ...     0.000000     0.000000     0.000000

Properties with geometric perturbations:
SCF Hessian                             ...  NO
IR spectrum                             ...  NO
VCD spectrum                            ...  NO
X-ray spectroscopy properties:
SCF XES/XAS/RIXS spectra                ...  NO


-------------
DIPOLE MOMENT
-------------

Method             : SCF
Type of density    : Electron Density
Multiplicity       :   1
Irrep              :   0
Energy             :  -836.3176695780448426 Eh
Relativity type    : 
Basis              : AO
                                X                 Y                 Z
Electronic contribution:      0.343610179      -0.225904343       0.489420892
Nuclear contribution   :     -3.413885452      -1.527950673      -0.311073935
                        -----------------------------------------
Total Dipole Moment    :     -3.070275273      -1.753855016       0.178346957
                        -----------------------------------------
Magnitude (a.u.)       :      3.540396208
Magnitude (Debye)      :      8.998971999



--------------------
Rotational spectrum 
--------------------
 
Rotational constants in cm-1:             0.025991             0.013875             0.011439 
Rotational constants in MHz :           779.197492           415.972384           342.942760 

Dipole components along the rotational axes: 
x,y,z [a.u.] :    -0.770201    -3.076744    -1.573163 
x,y,z [Debye]:    -1.957694    -7.820462    -3.998663 

 

Dipole moment calculation done in   0.0 sec 

Maximum memory used throughout the entire PROP-calculation: 13.7 MB

--------------------------------
SUGGESTED CITATIONS FOR THIS RUN
--------------------------------

Below you find a list of papers that are relevant to this ORCA run
We neither can nor want to force you to cite these papers, but we appreciate if you do
You receive ORCA, which is the product of decades of hard work by many enthusiastic individuals, for free
The only thing we kindly ask in return is that you cite our papers,
We deeply appreciate it, if you show your appreciation for ORCA by not just citing the generic ORCA reference.

Please note that relegating all ORCA citations to the supporting information does *not* help us.
SI sections are not indexed - citations you put there will not count into any citation statistics
But we need these citations in order to attract the funding resources that allow us to do what we are doing

Therefore, if you are a happy ORCA user, please consider citing a few of the papers listed below in the main body of your paper

In addition to the list printed below, the program has created the file react_cpcm.bibtex that contains the list in bibtex format
You can import this file easily into all common literature databanks and citation aid programs


List of essential papers. We consider these as the minimum necessary citations

  1. Neese,F.
     Software update: the ORCA program system, version 5.0
     WIRES Comput. Molec. Sci., 2022 12(1)e1606
     doi.org/10.1002/wcms.1606

List of papers to cite with high priority. The work reported in these papers was absolutely
necessary for this run to complete.
Our perspective: the developers of density functionals and basis sets usually get cited in chemistry papers
Good! But without the algorithms to do something with them, the functionals or basis sets would not do anything.
Hence, in our opinion, the algorithm design and method developments papers are equally worthy of getting cited

  1. Neese,F.
     An improvement of the resolution of the identity approximation for the formation of the Coulomb matrix
     J. Comp. Chem., 2003 24(14)1740-1747
     doi.org/10.1002/jcc.10318
  2. Neese,F.; Wennmohs,F.; Hansen,A.; Becker,U.
     Efficient, approximate and parallel Hartree-Fock and hybrid DFT calculations. A 'chain-of-spheres' algorithm for the Hartree-Fock exchange
     Chem. Phys., 2009 356(1-3)98-109
     doi.org/10.1016/j.chemphys.2008.10.036
  3. Garcia-Rates,M.; Neese,F.
     Effect of the Solute Cavity on the Solvation Energy and its Derivatives within the Framework of the Gaussian Charge Scheme
     J. Comput. Chem., 2020 41 922-939
     doi.org/10.1002/jcc.26139
  4. Helmich-Paris,B.; de Souza,B.; Neese,F.; Izsák,R.
     An improved chain of spheres for exchange algorithm
     J. Chem. Phys., 2021 155 104109
     doi.org/doi: 10.1063/5.0058766.
  5. Neese,F.
     The SHARK Integral Generation and Digestion System
     J. Comp. Chem., 2022  1-16
     doi.org/10.1002/jcc.26942
  6. Grimme,S.; Antony,J.; Ehrlich,S.; Krieg,H.
     A consistent and accurate ab initio parametrization of density functional dispersion correction (DFT-D) for the 94 elements H-Pu
     J. Chem. Phys., 2010 132 154104
     doi.org/10.1063/1.3382344
  7. Grimme,S.; Ehrlich,S.; Goerigk,L.
     Effect of the damping function in dispersion corrected density functional theory
     J. Comput. Chem., 2011 32(7)1456-1465
     doi.org/10.1002/jcc.21759

List of suggested additional citations. These are papers that are important in the 'surrounding' of 
of this run, or papers that preceded the highly important papers. If you like your results we are grateful for a citation.

  1. Izsak,R.; Neese,F.
     An overlap fitted chain of spheres exchange method
     J. Chem. Phys., 2011 135 144105
     doi.org/10.1063/1.3646921
  2. Izsak,R.; Hansen,A.; Neese,F.
     The resolution of identity and chain of spheres approximations for the LPNO-CCSD singles Fock term
     Molec. Phys., 2012 110 2413-2417
     doi.org/10.1080/00268976.2012.687466
  3. Neese,F.
     The ORCA program system
     WIRES Comput. Molec. Sci., 2012 2(1)73-78
     doi.org/10.1002/wcms.81
  4. Izsak,R.; Neese,F.; Klopper,W.
     Robust fitting techniques in the chain of spheres approximation to the Fock exchange: The role of the complementary space
     J. Chem. Phys., 2013 139 
     doi.org/10.1063/1.4819264
  5. Neese,F.
     Software update: the ORCA program system, version 4.0
     WIRES Comput. Molec. Sci., 2018 8(1)1-6
     doi.org/10.1002/wcms.1327
  6. Neese,F.; Wennmohs,F.; Becker,U.; Riplinger,C.
     The ORCA quantum chemistry program package
     J. Chem. Phys., 2020 152 Art. No. L224108
     doi.org/10.1063/5.0004608

List of optional additional citations

  1. Neese,F.
     Approximate second-order SCF convergence for spin unrestricted wavefunctions
     Chem. Phys. Lett., 2000 325(1-3)93-98
     doi.org/10.1016/s0009-2614(00)00662-x

Timings for individual modules:

Sum of individual times          ...       18.327 sec (=   0.305 min)
Startup calculation              ...        3.529 sec (=   0.059 min)  19.3 %
SCF iterations                   ...       13.580 sec (=   0.226 min)  74.1 %
Property calculations            ...        1.218 sec (=   0.020 min)   6.6 %
                             ****ORCA TERMINATED NORMALLY****
TOTAL RUN TIME: 0 days 0 hours 0 minutes 22 seconds 196 msec
