
                                 *****************
                                 * O   R   C   A *
                                 *****************

                                            #,                                       
                                            ###                                      
                                            ####                                     
                                            #####                                    
                                            ######                                   
                                           ########,                                 
                                     ,,################,,,,,                         
                               ,,#################################,,                 
                          ,,##########################################,,             
                       ,#########################################, ''#####,          
                    ,#############################################,,   '####,        
                  ,##################################################,,,,####,       
                ,###########''''           ''''###############################       
              ,#####''   ,,,,##########,,,,          '''####'''          '####       
            ,##' ,,,,###########################,,,                        '##       
           ' ,,###''''                  '''############,,,                           
         ,,##''                                '''############,,,,        ,,,,,,###''
      ,#''                                            '''#######################'''  
     '                                                          ''''####''''         
             ,#######,   #######,   ,#######,      ##                                
            ,#'     '#,  ##    ##  ,#'     '#,    #''#        ,####,   ,####,        
            ##       ##  ##   ,#'  ##            #'  '#       #'       #'  '#        
            ##       ##  #######   ##           ,######,      #####,   #    #        
            '#,     ,#'  ##    ##  '#,     ,#' ,#      #,     #,   #   #,  ,#        
             '#######'   ##     ##  '#######'  #'      '#     '####' # '####'        



                #########################################################
                #                        -***-                          #
                #          Department of theory and spectroscopy        #
                #                                                       #
                #                      Frank Neese                      #
                #                                                       #
                #     Directorship, Architecture, Infrastructure        #
                #                    SHARK, DRIVERS                     #
                #        Core code/Algorithms in most modules           #
                #                                                       #
                #        Max Planck Institute fuer Kohlenforschung      #
                #                Kaiser Wilhelm Platz 1                 #
                #                 D-45470 Muelheim/Ruhr                 #
                #                      Germany                          #
                #                                                       #
                #                  All rights reserved                  #
                #                        -***-                          #
                #########################################################


                         Program Version 6.0.1  -  RELEASE   -


 With contributions from (in alphabetic order):
[Max-Planck-Institut fuer Kohlenforschung]                               
  Daniel Aravena         : Magnetic Suceptibility                        
  Michael Atanasov       : Ab Initio Ligand Field Theory (pilot matlab implementation)
  Alexander A. Auer      : GIAO ZORA, VPT2 properties, NMR spectrum      
  Ute Becker             : All parallelization in ORCA, NUMFREQ, NUMCALC 
  Giovanni Bistoni       : ED, misc. LED, open-shell LED, HFLD           
  Martin Brehm           : Molecular dynamics                            
  Dmytro Bykov           : pre 5.0 version of the SCF Hessian            
  Marcos Casanova-Páez   : Triplet and SCS-CIS(D). UHF-(DLPNO)-IP/EA/STEOM-CCSD. UHF-CVS-IP/STEOM-CCSD   
  Vijay G. Chilkuri      : MRCI spin determinant printing, contributions to CSF-ICE 
  Pauline Colinet        : FMM embedding                                 
  Dipayan Datta          : RHF DLPNO-CCSD density                        
  Achintya Kumar Dutta   : EOM-CC, STEOM-CC                              
  Nicolas Foglia         : Exact transition moments, OPA infrastructure, MCD improvements    
  Dmitry Ganyushin       : Spin-Orbit,Spin-Spin,Magnetic field MRCI      
  Miquel Garcia-Rates    : C-PCM and meta-GGA Hessian, CCSD/C-PCM, Gaussian charge scheme 
  Tiago L. C. Gouveia    : GS-ROHF, GS-ROCIS                             
  Yang Guo               : DLPNO-NEVPT2, F12-NEVPT2, CIM, IAO-localization        
  Andreas Hansen         : Spin unrestricted coupled pair/coupled cluster methods 
  Ingolf Harden          : AUTO-CI MPn and infrastructure                
  Benjamin Helmich-Paris : MC-RPA, TRAH-(SCF,CASSCF), AVAS, COSX integrals, SCF dyn. polar. 
  Lee Huntington         : MR-EOM, pCC                                   
  Robert Izsak           : Overlap fitted RIJCOSX, COSX-SCS-MP3, EOM     
  Riya Kayal             : Wick's Theorem for AUTO-CI, AUTO-CI UHF-CCSDT 
  Emily Kempfer          : AUTO-CI, RHF CISDT and CCSDT                  
  Christian Kollmar      : KDIIS, OOCD, Brueckner-CCSD(T), CCSD density, CASPT2, CASPT2-K, improved NEVPT2 
  Axel Koslowski         : Symmetry handling                             
  Simone Kossmann        : meta-GGA functionals, TD-DFT gradient, OOMP2, (MP2 Hessian; deprecated post 5.0) 
  Lucas Lang             : DCDCAS                                        
  Marvin Lechner         : AUTO-CI (C++ implementation), FIC-MRCC        
  Spencer Leger          : CASSCF response                               
  Dagmar Lenk            : GEPOL surface, SMD, ORCA-2-JSON               
  Dimitrios Liakos       : Extrapolation schemes; Compound Job, initial MDCI parallelization 
  Dimitrios Manganas     : Further ROCIS development; embedding schemes. LFT, Crystal Embedding 
  Dimitrios Pantazis     : SARC Basis sets                               
  Anastasios Papadopoulos: AUTO-CI, single reference methods and gradients 
  Taras Petrenko         : pre 6.0 DFT Hessian and TD-DFT gradient, (ASA, deprecated), ECA, 1-Electron XAS/XES, NRVS 
  Peter Pinski           : DLPNO-MP2, DLPNO-MP2 Gradient                 
  Christoph Reimann      : Effective Core Potentials                     
  Marius Retegan         : Local ZFS, SOC                                
  Christoph Riplinger    : Optimizer, TS searches, QM/MM, DLPNO-CCSD(T), (RO)-DLPNO pert. Triples 
  Michael Roemelt        : Original ROCIS implementation                 
  Masaaki Saitow         : Open-shell DLPNO-CCSD energy and density      
  Barbara Sandhoefer     : DKH picture change effects                    
  Kantharuban Sivalingam : CASSCF convergence/infrastructure, NEVPT2 and variants, FIC-MRCI 
  Bernardo de Souza      : ESD, SOC TD-DFT                               
  Georgi L. Stoychev     : AutoAux, RI-MP2 NMR, DLPNO-MP2 response, X2C  
  Van Anh Tran           : RI-MP2 g-tensors                              
  Willem Van den Heuvel  : Paramagnetic NMR                              
  Zikuan Wang            : NOTCH, Electric field optimization            
  Frank Wennmohs         : Technical directorship and infrastructure     
  Hang Xu                : AUTO-CI-Response properties                   
                                                                         
[FACCTs GmbH]                                                            
  Markus Bursch, Miquel Garcia-Rates, Christoph Riplinger, Bernardo de Souza, Georgi L. Stoychev 
                                                                 
  APM, Basis sets (HGBS, AHGBS, def-TZVP (Ac-Lr), def2-XVPD (La-Lu)), CI-OPT, improved COSX, DLPNO-Multilevel,           
  DOCKER, DRACO, updates on ESD, GOAT, IRC, LR-CPCM, MBIS, meta-GGA TD-DFT gradient, ML-optimized integration grids, 
  MM, NACMEs, nearIR, NEB, NEB-TS, NL-DFT gradient (VV10), 2- and 3-layer-ONIOM, interface openCOSMO-RS, QMMM,   
  Crystal-QMMM, SF, symmetry and pop. for TD-DFT, r2SCAN hybrids, SOLVATOR                                   
                                                                         
[Other institutions]                                                     
  V. Asgeirsson          : NEB                                           
  Christoph Bannwarth    : sTDA-DFT, sTD-DFT, PBEh-3c, B97-3c, D3        
  Sebastian Ehlert       : rSCAN, r2SCAN, r2SCAN-3c, D4, dhf basis sets  
  Marvin Friede          : D4 for Fr, Ra, Ac-Lr                          
  Lars Goerigk           : TD-DFT with DH, B97 family of functionals     
  Stefan Grimme          : VdW corrections, initial TS optimization, DFT functionals, gCP, sTDA/sTD-DF 
  Waldemar Hujo          : DFT-NL                                        
  H. Jonsson             : NEB                                           
  Holger Kruse           : gCP                                           
  Marcel Mueller         : wB97X-3c, vDZP basis set                      
  Hagen Neugebauer       : wr2SCAN                                       
  Tobias Risthaus        : range-separated hybrid DFT                    
  Lukas Wittmann         : regularized MP2, r2SCAN double-hybrids, wr2SCAN        
                                                                         
We gratefully acknowledge several colleagues who have allowed us to      
interface, adapt or use parts of their codes:                            
  Ed Valeev, F. Pavosevic, A. Kumar             : LibInt (2-el integral package), F12 methods 
  Garnet Chan, S. Sharma, J. Yang, R. Olivares  : DMRG                   
  Ulf Ekstrom                                   : XCFun DFT Library      
  Mihaly Kallay                                 : mrcc  (arbitrary order and MRCC methods)
  Frank Weinhold                                : gennbo (NPA and NBO analysis)           
  Simon Mueller                                 : openCOSMO-RS                            
  Christopher J. Cramer and Donald G. Truhlar   : smd solvation model                     
  S Lehtola, MJT Oliveira, MAL Marques          : LibXC Library                           
  Liviu Ungur et al                             : ANISO software                          


 Your calculation uses the libint2 library for the computation of 2-el integrals
 For citations please refer to: http://libint.valeyev.net

 Your ORCA version has been built with support for libXC version: 6.2.2
 For citations please refer to: https://libxc.gitlab.io

 This ORCA versions uses:
   CBLAS   interface :  Fast vector & matrix operations
   LAPACKE interface :  Fast linear algebra routines
   SCALAPACK package :  Parallel linear algebra routines
   Shared memory     :  Shared parallel matrices
   BLAS/LAPACK       :  OpenBLAS 0.3.27  USE64BITINT DYNAMIC_ARCH NO_AFFINITY SkylakeX SINGLE_THREADED
        Core in use  :  SkylakeX
   Copyright (c) 2011-2014, The OpenBLAS Project


NOTE: MaxCore=3000 MB was set to SCF,MP2,MDCI,CIPSI,MRCI and CIS
      => If you want to overwrite this, your respective input block should be placed after the MaxCore statement
Your calculation utilizes the atom-pairwise dispersion correction
with the Becke-Johnson damping scheme (D3BJ)


================================================================================

----- Orbital basis set information -----
Your calculation utilizes the basis: def2-SVP
   F. Weigend and R. Ahlrichs, Phys. Chem. Chem. Phys. 7, 3297 (2005).

----- AuxJ basis set information -----
Your calculation utilizes the auxiliary basis: def2/J
   F. Weigend, Phys. Chem. Chem. Phys. 8, 1057 (2006).

================================================================================
                                        WARNINGS
                       Please study these warnings very carefully!
================================================================================

WARNING: Old DensityContainer found on disk!
         Will remove this file - 
         If you want to keep old densities, please start your calculation with a different basename. 


================================================================================
                                       INPUT FILE
================================================================================
NAME = react_vac.inp
|  1> ! B3LYP D3BJ def2-SVP def2/J RIJCOSX KeepDens
|  2> %maxcore 3000
|  3> %pal nprocs 8 end
|  4> %scf MaxIter 300 end
|  5> * xyz -2 1
|  6> C       60.172000      34.451000      57.183000
|  7> H       60.677000      33.499000      57.335000
|  8> H       60.772000      35.350000      57.045000
|  9> C       58.839000      34.555000      57.144000
| 10> C       58.135000      35.886000      56.934000
| 11> O       58.849000      36.889000      56.668000
| 12> O       56.881000      35.881000      57.035000
| 13> O       58.005000      33.466000      57.323000
| 14> C       57.784000      32.577000      56.181000
| 15> H       57.124000      31.796000      56.591000
| 16> C       59.093000      31.984000      55.785000
| 17> H       59.575000      31.290000      56.476000
| 18> C       59.761000      32.399000      54.695000
| 19> C       59.155000      33.384000      53.794000
| 20> H       59.783000      33.750000      52.978000
| 21> C       57.896000      33.830000      53.961000
| 22> H       57.462000      34.569000      53.280000
| 23> C       57.005000      33.293000      55.047000
| 24> H       56.477000      34.135000      55.527000
| 25> O       56.061000      32.411000      54.429000
| 26> H       55.414000      32.150000      55.104000
| 27> C       61.158000      31.870000      54.411000
| 28> O       61.820000      31.431000      55.388000
| 29> O       61.546000      31.910000      53.219000
| 30> *
| 31> 
| 32>                          ****END OF INPUT****
================================================================================

                       ****************************
                       * Single Point Calculation *
                       ****************************

---------------------------------
CARTESIAN COORDINATES (ANGSTROEM)
---------------------------------
  C     60.172000   34.451000   57.183000
  H     60.677000   33.499000   57.335000
  H     60.772000   35.350000   57.045000
  C     58.839000   34.555000   57.144000
  C     58.135000   35.886000   56.934000
  O     58.849000   36.889000   56.668000
  O     56.881000   35.881000   57.035000
  O     58.005000   33.466000   57.323000
  C     57.784000   32.577000   56.181000
  H     57.124000   31.796000   56.591000
  C     59.093000   31.984000   55.785000
  H     59.575000   31.290000   56.476000
  C     59.761000   32.399000   54.695000
  C     59.155000   33.384000   53.794000
  H     59.783000   33.750000   52.978000
  C     57.896000   33.830000   53.961000
  H     57.462000   34.569000   53.280000
  C     57.005000   33.293000   55.047000
  H     56.477000   34.135000   55.527000
  O     56.061000   32.411000   54.429000
  H     55.414000   32.150000   55.104000
  C     61.158000   31.870000   54.411000
  O     61.820000   31.431000   55.388000
  O     61.546000   31.910000   53.219000

----------------------------
CARTESIAN COORDINATES (A.U.)
----------------------------
  NO LB      ZA    FRAG     MASS         X           Y           Z
   0 C     6.0000    0    12.011  113.708601   65.102955  108.060210
   1 H     1.0000    0     1.008  114.662913   63.303936  108.347448
   2 H     1.0000    0     1.008  114.842437   66.801819  107.799427
   3 C     6.0000    0    12.011  111.189596   65.299487  107.986510
   4 C     6.0000    0    12.011  109.859229   67.814712  107.589668
   5 O     8.0000    0    15.999  111.208493   69.710107  107.087001
   6 O     8.0000    0    15.999  107.489512   67.805263  107.780530
   7 O     8.0000    0    15.999  109.613564   63.241575  108.324771
   8 C     6.0000    0    12.011  109.195935   61.561608  106.166704
   9 H     1.0000    0     1.008  107.948716   60.085732  106.941492
  10 C     6.0000    0    12.011  111.669586   60.441001  105.418372
  11 H     1.0000    0     1.008  112.580434   59.129531  106.724173
  12 C     6.0000    0    12.011  112.931923   61.225237  103.358571
  13 C     6.0000    0    12.011  111.786749   63.086617  101.655928
  14 H     1.0000    0     1.008  112.973497   63.778257  100.113911
  15 C     6.0000    0    12.011  109.407584   63.929435  101.971512
  16 H     1.0000    0     1.008  108.587443   65.325943  100.684608
  17 C     6.0000    0    12.011  107.723838   62.914652  104.023754
  18 H     1.0000    0     1.008  106.726063   64.505802  104.930823
  19 O     8.0000    0    15.999  105.939937   61.247914  102.855904
  20 H     1.0000    0     1.008  104.717284   60.754695  104.131469
  21 C     6.0000    0    12.011  115.571871   60.225572  102.821889
  22 O     8.0000    0    15.999  116.822870   59.395982  104.668151
  23 O     8.0000    0    15.999  116.305085   60.301161  100.569335

--------------------------------
INTERNAL COORDINATES (ANGSTROEM)
--------------------------------
 C      0   0   0     0.000000000000     0.00000000     0.00000000
 H      1   0   0     1.088316589968     0.00000000     0.00000000
 H      1   2   0     1.089607727579   118.94025798     0.00000000
 C      1   2   3     1.337619527369   122.31004356   179.20771339
 C      4   1   2     1.520288459471   122.24683007   179.89087730
 O      5   4   1     1.259587630933   117.63425722     6.60340064
 O      5   4   1     1.258070745229   116.55154335   186.17639195
 O      4   1   2     1.383299678305   122.40107542     1.44881622
 C      8   4   1     1.464010245866   117.91222845   279.63489026
 H      9   8   4     1.101662834083   103.33337678   178.38025161
 C      9   8   4     1.490619334371   108.43555339    61.60362327
 H     11   9   8     1.091531492903   118.19906191    67.21269472
 C     11   9   8     1.344079238736   121.94128185   255.41139657
 C     13  11   9     1.466036152351   120.02762379   354.87403008
 H     14  13  11     1.092792752538   116.51263779   174.51887446
 C     14  13  11     1.346063148593   122.20792930   355.09749972
 H     16  14  13     1.094640580282   121.15379308   179.74991252
 C     16  14  13     1.503876989650   121.69699597   356.91820957
 H     18  16  14     1.103697422304   108.97035022   136.47088176
 O     18  16  14     1.432125692808   107.38699849   255.60062320
 H     20  18  16     0.970749710276   107.74942871   187.10015841
 C     13  11   9     1.520561080654   120.04350750   173.56175687
 O     22  13  11     1.259164008380   117.34817233   336.58807942
 O     22  13  11     1.254196156907   116.78463965   156.51054255

---------------------------
INTERNAL COORDINATES (A.U.)
---------------------------
 C      0   0   0     0.000000000000     0.00000000     0.00000000
 H      1   0   0     2.056620302043     0.00000000     0.00000000
 H      1   2   0     2.059060198529   118.94025798     0.00000000
 C      1   2   3     2.527734578113   122.31004356   179.20771339
 C      4   1   2     2.872928832961   122.24683007   179.89087730
 O      5   4   1     2.380275664138   117.63425722     6.60340064
 O      5   4   1     2.377409165580   116.55154335   186.17639195
 O      4   1   2     2.614057553139   122.40107542     1.44881622
 C      8   4   1     2.766578421941   117.91222845   279.63489026
 H      9   8   4     2.081841048337   103.33337678   178.38025161
 C      9   8   4     2.816862311889   108.43555339    61.60362327
 H     11   9   8     2.062695588138   118.19906191    67.21269472
 C     11   9   8     2.539941663500   121.94128185   255.41139657
 C     13  11   9     2.770406830371   120.02762379   354.87403008
 H     14  13  11     2.065079023431   116.51263779   174.51887446
 C     14  13  11     2.543690709804   122.20792930   355.09749972
 H     16  14  13     2.068570911810   121.15379308   179.74991252
 C     16  14  13     2.841915649545   121.69699597   356.91820957
 H     18  16  14     2.085685862869   108.97035022   136.47088176
 O     18  16  14     2.706325348759   107.38699849   255.60062320
 H     20  18  16     1.834451097004   107.74942871   187.10015841
 C     13  11   9     2.873444012336   120.04350750   173.56175687
 O     22  13  11     2.379475133529   117.34817233   336.58807942
 O     22  13  11     2.370087254771   116.78463965   156.51054255

---------------------
BASIS SET INFORMATION
---------------------
There are 3 groups of distinct atoms

 Group   1 Type C   : 7s4p1d contracted to 3s2p1d pattern {511/31/1}
 Group   2 Type H   : 4s1p contracted to 2s1p pattern {31/1}
 Group   3 Type O   : 7s4p1d contracted to 3s2p1d pattern {511/31/1}

Atom   0C    basis set group =>   1
Atom   1H    basis set group =>   2
Atom   2H    basis set group =>   2
Atom   3C    basis set group =>   1
Atom   4C    basis set group =>   1
Atom   5O    basis set group =>   3
Atom   6O    basis set group =>   3
Atom   7O    basis set group =>   3
Atom   8C    basis set group =>   1
Atom   9H    basis set group =>   2
Atom  10C    basis set group =>   1
Atom  11H    basis set group =>   2
Atom  12C    basis set group =>   1
Atom  13C    basis set group =>   1
Atom  14H    basis set group =>   2
Atom  15C    basis set group =>   1
Atom  16H    basis set group =>   2
Atom  17C    basis set group =>   1
Atom  18H    basis set group =>   2
Atom  19O    basis set group =>   3
Atom  20H    basis set group =>   2
Atom  21C    basis set group =>   1
Atom  22O    basis set group =>   3
Atom  23O    basis set group =>   3
---------------------------------
AUXILIARY/J BASIS SET INFORMATION
---------------------------------
There are 3 groups of distinct atoms

 Group   1 Type C   : 12s5p4d2f1g contracted to 6s4p3d1f1g pattern {711111/2111/211/2/1}
 Group   2 Type H   : 5s2p1d contracted to 3s1p1d pattern {311/2/1}
 Group   3 Type O   : 12s5p4d2f1g contracted to 6s4p3d1f1g pattern {711111/2111/211/2/1}

Atom   0C    basis set group =>   1
Atom   1H    basis set group =>   2
Atom   2H    basis set group =>   2
Atom   3C    basis set group =>   1
Atom   4C    basis set group =>   1
Atom   5O    basis set group =>   3
Atom   6O    basis set group =>   3
Atom   7O    basis set group =>   3
Atom   8C    basis set group =>   1
Atom   9H    basis set group =>   2
Atom  10C    basis set group =>   1
Atom  11H    basis set group =>   2
Atom  12C    basis set group =>   1
Atom  13C    basis set group =>   1
Atom  14H    basis set group =>   2
Atom  15C    basis set group =>   1
Atom  16H    basis set group =>   2
Atom  17C    basis set group =>   1
Atom  18H    basis set group =>   2
Atom  19O    basis set group =>   3
Atom  20H    basis set group =>   2
Atom  21C    basis set group =>   1
Atom  22O    basis set group =>   3
Atom  23O    basis set group =>   3

Checking for AutoStart:
The File: react_vac.gbw exists
Trying to determine its content:
     ... Fine, the file contains calculation information
     ... Fine, the calculation information was read
     ... Fine, the file contains a basis set
     ... Fine, the basis set was read
     ... Fine, the file contains a geometry
     ... Fine, the geometry was read
     ... Fine, the file contains a set of orbitals
     ... Fine, the orbitals can be read
     => possible old guess file was deleted
     => GBW file was renamed to GES file
     => GES file is set as startup file
     => Guess is set to MORead
     ... now leaving AutoStart



           ************************************************************
           *        Program running with 8 parallel MPI-processes     *
           *              working on a common directory               *
           ************************************************************
------------------------------------------------------------------------------
                             ORCA STARTUP CALCULATIONS
                           -- RI-GTO INTEGRALS CHOSEN --
------------------------------------------------------------------------------
------------------------------------------------------------------------------
                   ___                                                        
                  /   \      - P O W E R E D   B Y -                         
                 /     \                                                     
                 |  |  |   _    _      __       _____    __    __             
                 |  |  |  | |  | |    /  \     |  _  \  |  |  /  |          
                  \  \/   | |  | |   /    \    | | | |  |  | /  /          
                 / \  \   | |__| |  /  /\  \   | |_| |  |  |/  /          
                |  |  |   |  __  | /  /__\  \  |    /   |      \           
                |  |  |   | |  | | |   __   |  |    \   |  |\   \          
                \     /   | |  | | |  |  |  |  | |\  \  |  | \   \       
                 \___/    |_|  |_| |__|  |__|  |_| \__\ |__|  \__/        
                                                                              
                      - O R C A' S   B I G   F R I E N D -                    
                                      &                                       
                       - I N T E G R A L  F E E D E R -                       
                                                                              
 v1 FN, 2020, v2 2021, v3 2022-2024                                           
------------------------------------------------------------------------------


----------------------
SHARK INTEGRAL PACKAGE
----------------------

Number of atoms                             ...     24
Number of basis functions                   ...    264
Number of shells                            ...    120
Maximum angular momentum                    ...      2
Integral batch strategy                     ... SHARK/LIBINT Hybrid
RI-J (if used) integral strategy            ... SPLIT-RIJ (Revised 2003 algorithm where possible)
Printlevel                                  ...      1
Contraction scheme used                     ... SEGMENTED contraction
Prescreening option                         ... SCHWARTZ
   Thresh                                   ... 1.000e-10
   Tcut                                     ... 1.000e-11
   Tpresel                                  ... 1.000e-11 
Coulomb Range Separation                    ... NOT USED
Exchange Range Separation                   ... NOT USED
Multipole approximations                    ... NOT USED
Finite Nucleus Model                        ... NOT USED
CABS basis                                  ... NOT available
Auxiliary Coulomb fitting basis             ... AVAILABLE
   # of basis functions in Aux-J            ...    872
   # of shells in Aux-J                     ...    280
   Maximum angular momentum in Aux-J        ...      4
Auxiliary J/K fitting basis                 ... NOT available
Auxiliary Correlation fitting basis         ... NOT available
Auxiliary 'external' fitting basis          ... NOT available

Checking pre-screening integrals            ... done (  0.0 sec) Dimension = 120
Check shell pair data                       ... done (  0.0 sec)
Shell pair information
Shell pair cut-off parameter TPreSel        ...   1.0e-11
Total number of shell pairs                 ...      7260
Shell pairs after pre-screening             ...      6182
Total number of primitive shell pairs       ...     27260
Primitive shell pairs kept                  ...     15298
          la=0 lb=0:   1764 shell pairs
          la=1 lb=0:   2230 shell pairs
          la=1 lb=1:    743 shell pairs
          la=2 lb=0:    812 shell pairs
          la=2 lb=1:    532 shell pairs
          la=2 lb=2:    101 shell pairs

Calculating one electron integrals          ... done (  0.0 sec)
Calculating RI/J V-Matrix + Cholesky decomp.... done (  0.2 sec)
Calculating Nuclear repulsion               ... done (  0.0 sec) ENN=   1103.923089196936 Eh

Diagonalization of the overlap matrix:
Smallest eigenvalue                        ... 4.374e-04
Time for diagonalization                   ...    0.009 sec
Threshold for overlap eigenvalues          ... 1.000e-07
Number of eigenvalues below threshold      ... 0
Time for construction of square roots      ...    0.014 sec
Total time needed                          ...    0.037 sec

-------------------
DFT GRID GENERATION
-------------------

General Integration Accuracy     IntAcc      ... 4.388
Radial Grid Type                 RadialGrid  ... OptM3 with GC (2021)
Angular Grid (max. ang.)         AngularGrid ... 4 (Lebedev-302)
Angular grid pruning method      GridPruning ... 4 (adaptive)
Weight generation scheme         WeightScheme... mBecke (2022)
Basis function cutoff            BFCut       ... 1.0000e-10
Integration weight cutoff        WCut        ... 1.0000e-14
Partially contracted basis set               ... off
Rotationally invariant grid construction     ... off
Angular grids for H and He will be reduced by one unit

Total number of grid points                  ...   121676
Total number of batches                      ...     1915
Average number of points per batch           ...       63
Average number of grid points per atom       ...     5070

--------------------
COSX GRID GENERATION
--------------------

GRIDX 1
-------
General Integration Accuracy     IntAcc      ... 3.816
Radial Grid Type                 RadialGrid  ... OptM3 with GC (2021)
Angular Grid (max. ang.)         AngularGrid ... 1 (Lebedev-50)
Angular grid pruning method      GridPruning ... 4 (adaptive)
Weight generation scheme         WeightScheme... mBecke (2022)
Basis function cutoff            BFCut       ... 1.0000e-10
Integration weight cutoff        WCut        ... 1.0000e-14
Partially contracted basis set               ... on
Rotationally invariant grid construction     ... off
Angular grids for H and He will be reduced by one unit

Total number of grid points                  ...    15406
Total number of batches                      ...      135
Average number of points per batch           ...      114
Average number of grid points per atom       ...      642
UseSFitting                                  ... on

GRIDX 2
-------
General Integration Accuracy     IntAcc      ... 4.020
Radial Grid Type                 RadialGrid  ... OptM3 with GC (2021)
Angular Grid (max. ang.)         AngularGrid ... 2 (Lebedev-110)
Angular grid pruning method      GridPruning ... 4 (adaptive)
Weight generation scheme         WeightScheme... mBecke (2022)
Basis function cutoff            BFCut       ... 1.0000e-10
Integration weight cutoff        WCut        ... 1.0000e-14
Partially contracted basis set               ... on
Rotationally invariant grid construction     ... off
Angular grids for H and He will be reduced by one unit

Total number of grid points                  ...    34451
Total number of batches                      ...      281
Average number of points per batch           ...      122
Average number of grid points per atom       ...     1435
UseSFitting                                  ... on

GRIDX 3
-------
General Integration Accuracy     IntAcc      ... 4.338
Radial Grid Type                 RadialGrid  ... OptM3 with GC (2021)
Angular Grid (max. ang.)         AngularGrid ... 3 (Lebedev-194)
Angular grid pruning method      GridPruning ... 4 (adaptive)
Weight generation scheme         WeightScheme... mBecke (2022)
Basis function cutoff            BFCut       ... 1.0000e-10
Integration weight cutoff        WCut        ... 1.0000e-14
Partially contracted basis set               ... on
Rotationally invariant grid construction     ... off
Angular grids for H and He will be reduced by one unit

Total number of grid points                  ...    75643
Total number of batches                      ...      603
Average number of points per batch           ...      125
Average number of grid points per atom       ...     3152
UseSFitting                                  ... on
Initializing property integral containers    ... done (  0.0 sec)

SHARK setup successfully completed in   2.4 seconds

Maximum memory used throughout the entire STARTUP-calculation: 33.7 MB


           ************************************************************
           *        Program running with 8 parallel MPI-processes     *
           *              working on a common directory               *
           ************************************************************
-------------------------------------------------------------------------------
                                 ORCA GUESS
                   Start orbitals & Density for SCF / CASSCF
-------------------------------------------------------------------------------

------------
SCF SETTINGS
------------
Hamiltonian:
 Density Functional     Method          .... DFT(GTOs)
 Exchange Functional    Exchange        .... B88
   X-Alpha parameter    XAlpha          ....  0.666667
   Becke's b parameter  XBeta           ....  0.004200
 Correlation Functional Correlation     .... LYP
 LDA part of GGA corr.  LDAOpt          .... VWN-5
 Gradients option       PostSCFGGA      .... off
 Hybrid DFT is turned on
   Fraction HF Exchange ScalHFX         ....  0.200000
   Scaling of DF-GGA-X  ScalDFX         ....  0.720000
   Scaling of DF-GGA-C  ScalDFC         ....  0.810000
   Scaling of DF-LDA-C  ScalLDAC        ....  1.000000
   Perturbative correction              ....  0.000000
   NL short-range parameter             ....  4.800000
 RI-approximation to the Coulomb term is turned on
   Number of AuxJ basis functions       .... 872
   RIJ-COSX (HFX calculated with COS-X)).... on


General Settings:
 Integral files         IntName         .... react_vac
 Hartree-Fock type      HFTyp           .... RHF
 Total Charge           Charge          ....   -2
 Multiplicity           Mult            ....    1
 Number of Electrons    NEL             ....  118
 Basis Dimension        Dim             ....  264
 Nuclear Repulsion      ENuc            ....   1103.9230891969 Eh

Convergence Acceleration:
 AO-DIIS                CNVDIIS         .... on
   Start iteration      DIISMaxIt       ....    12
   Startup error        DIISStart       ....  0.200000
   # of expansion vecs  DIISMaxEq       ....     5
   Bias factor          DIISBfac        ....   1.050
   Max. coefficient     DIISMaxC        ....  10.000
 MO-DIIS                CNVKDIIS        .... off
 Trust-Rad. Augm. Hess. CNVTRAH         .... auto
   Auto Start mean grad. ratio tolernc. ....  1.125000
   Auto Start start iteration           ....     1
   Auto Start num. interpolation iter.  ....    10
   Max. Number of Micro iterations      ....    24
   Max. Number of Macro iterations      .... Maxiter - #DIIS iter
   Number of Davidson start vectors     ....     2
   Converg. threshold    (grad. norm)   ....   5.000e-05
   Grad. Scal. Fac. for Micro threshold ....   0.100
   Minimum threshold for Micro iter.    ....   1.000e-02
   NR start threshold (gradient norm)   ....   1.000e-04
   Initial trust radius                 ....   0.400
   Minimum AH scaling param. (alpha)    ....   1.000
   Maximum AH scaling param. (alpha)    .... 1000.000
   Quad. conv. algorithm                .... NR
   White noise on init. David. guess    .... on
   Maximum white noise                  ....   0.010
   Pseudo random numbers                .... off
   Inactive MOs                         .... canonical
   Orbital update algorithm             .... Taylor
   Preconditioner                       .... Diag
   Full preconditioner red. dimension   ....   250
 SOSCF                  CNVSOSCF        .... on
   Start iteration      SOSCFMaxIt      ....   150
   Startup grad/error   SOSCFStart      ....  0.003300
   Hessian update       SOSCFHessUp     .... L-BFGS
 Level Shifting         CNVShift        .... on
   Level shift para.    LevelShift      ....    0.2500
   Turn off err/grad.   ShiftErr        ....    0.0010
 Zerner damping         CNVZerner       .... off
 Static damping         CNVDamp         .... on
   Fraction old density DampFac         ....    0.7000
   Max. Damping (<1)    DampMax         ....    0.9800
   Min. Damping (>=0)   DampMin         ....    0.0000
   Turn off err/grad.   DampErr         ....    0.1000

SCF Procedure:
 Maximum # iterations   MaxIter         ....   300
 SCF integral mode      SCFMode         .... Direct
   Integral package                     .... SHARK and LIBINT hybrid scheme
 Reset frequency        DirectResetFreq ....    20
 Integral Threshold     Thresh          ....  1.000e-10 Eh
 Primitive CutOff       TCut            ....  1.000e-11 Eh

Convergence Tolerance:
 Convergence Check Mode ConvCheckMode   .... Total+1el-Energy
 Convergence forced     ConvForced      .... 0
 Energy Change          TolE            ....  1.000e-06 Eh
 1-El. energy change                    ....  1.000e-03 Eh
 Orbital Gradient       TolG            ....  5.000e-05
 Orbital Rotation angle TolX            ....  5.000e-05
 DIIS Error             TolErr          ....  1.000e-06

---------------------
INITIAL GUESS: MOREAD
---------------------
Guess MOs are being read from file: react_vac.ges
Input Geometry matches current geometry (good)
Input basis set matches current basis set (good)
Occupation numbers will be reassigned to an Aufbau configuration
MOs were renormalized
MOs were reorthogonalized (Cholesky)
                      ------------------
                      INITIAL GUESS DONE (   0.1 sec)
                      ------------------
             **** ENERGY FILE WAS UPDATED (react_vac.en.tmp) ****
Finished Guess after   0.6 sec
Maximum memory used throughout the entire GUESS-calculation: 14.7 MB


           ************************************************************
           *        Program running with 8 parallel MPI-processes     *
           *              working on a common directory               *
           ************************************************************

-------------------------------------------------------------------------------------------
                                      ORCA LEAN-SCF
                              memory conserving SCF solver
-------------------------------------------------------------------------------------------

----------------------------------------D-I-I-S--------------------------------------------
Iteration    Energy (Eh)           Delta-E    RMSDP     MaxDP     DIISErr   Damp  Time(sec)
-------------------------------------------------------------------------------------------
               ***  Starting incremental Fock matrix formation  ***
                              *** Initializing SOSCF ***
---------------------------------------S-O-S-C-F--------------------------------------
Iteration    Energy (Eh)           Delta-E    RMSDP     MaxDP     MaxGrad    Time(sec)
--------------------------------------------------------------------------------------
    1    -836.1003737233513675     0.00e+00  9.22e-06  2.44e-04  2.95e-05     2.3
               *** Restarting incremental Fock matrix formation ***
    2    -836.1003736543912055     6.90e-08  1.52e-05  5.15e-04  8.25e-05     2.3
    3    -836.1003724857450834     1.17e-06  1.11e-05  3.89e-04  2.24e-04     1.4
    4    -836.1003739163356840    -1.43e-06  2.18e-06  6.89e-05  8.36e-06     1.3
                  *** Gradient check signals convergence ***

               *****************************************************
               *                     SUCCESS                       *
               *           SCF CONVERGED AFTER   4 CYCLES          *
               *****************************************************

Recomputing exchange energy using gridx3       ... done (    3.220 sec)
Old exchange energy                            :    -20.888867952 Eh
New exchange energy                            :    -20.888925581 Eh
Exchange energy change after final integration :     -0.000057628 Eh
Total energy after final integration           :   -836.100431545 Eh
             **** ENERGY FILE WAS UPDATED (react_vac.en.tmp) ****

----------------
TOTAL SCF ENERGY
----------------

Total Energy       :       -836.10043154475750 Eh          -22751.44940 eV

Components:
Nuclear Repulsion  :       1103.92308919693619 Eh           30039.27442 eV
Electronic Energy  :      -1940.02346311327187 Eh          -52790.72226 eV
One Electron Energy:      -3372.22819709925943 Eh          -91762.99438 eV
Two Electron Energy:       1432.20473398598756 Eh           38972.27212 eV

Virial components:
Potential Energy   :      -1665.59824450193264 Eh          -45323.23242 eV
Kinetic Energy     :        829.49781295717503 Eh           22571.78302 eV
Virial Ratio       :          2.00795977817475

DFT components:
N(Alpha)           :       59.000011654174 electrons
N(Beta)            :       59.000011654174 electrons
N(Total)           :      118.000023308349 electrons
E(X)               :      -83.137345981896 Eh       
E(C)               :       -4.846303950955 Eh       
E(XC)              :      -87.983649932851 Eh       

---------------
SCF CONVERGENCE
---------------

  Last Energy change         ...    1.4306e-06  Tolerance :   1.0000e-06
  Last MAX-Density change    ...    6.8946e-05  Tolerance :   1.0000e-05
  Last RMS-Density change    ...    2.1848e-06  Tolerance :   1.0000e-06
  Last DIIS Error            ...    1.7066e-04  Tolerance :   1.0000e-06
  Last Orbital Gradient      ...    8.3607e-06  Tolerance :   5.0000e-05
  Last Orbital Rotation      ...    4.1699e-05  Tolerance :   5.0000e-05


----------------
ORBITAL ENERGIES
----------------

  NO   OCC          E(Eh)            E(eV) 
   0   2.0000     -18.906106      -514.4613 
   1   2.0000     -18.879787      -513.7451 
   2   2.0000     -18.773463      -510.8519 
   3   2.0000     -18.769387      -510.7410 
   4   2.0000     -18.765800      -510.6434 
   5   2.0000     -18.762546      -510.5548 
   6   2.0000      -9.996487      -272.0182 
   7   2.0000      -9.988855      -271.8106 
   8   2.0000      -9.971901      -271.3492 
   9   2.0000      -9.964904      -271.1588 
  10   2.0000      -9.954296      -270.8702 
  11   2.0000      -9.940188      -270.4863 
  12   2.0000      -9.939417      -270.4653 
  13   2.0000      -9.922747      -270.0117 
  14   2.0000      -9.920809      -269.9589 
  15   2.0000      -9.905017      -269.5292 
  16   2.0000      -0.781639       -21.2695 
  17   2.0000      -0.765376       -20.8270 
  18   2.0000      -0.710868       -19.3437 
  19   2.0000      -0.700019       -19.0485 
  20   2.0000      -0.618759       -16.8373 
  21   2.0000      -0.610851       -16.6221 
  22   2.0000      -0.572058       -15.5665 
  23   2.0000      -0.498758       -13.5719 
  24   2.0000      -0.484622       -13.1872 
  25   2.0000      -0.452821       -12.3219 
  26   2.0000      -0.380588       -10.3563 
  27   2.0000      -0.346345        -9.4245 
  28   2.0000      -0.318687        -8.6719 
  29   2.0000      -0.285280        -7.7629 
  30   2.0000      -0.276215        -7.5162 
  31   2.0000      -0.244316        -6.6482 
  32   2.0000      -0.231674        -6.3042 
  33   2.0000      -0.216725        -5.8974 
  34   2.0000      -0.191402        -5.2083 
  35   2.0000      -0.186917        -5.0863 
  36   2.0000      -0.177791        -4.8379 
  37   2.0000      -0.154211        -4.1963 
  38   2.0000      -0.151631        -4.1261 
  39   2.0000      -0.133644        -3.6367 
  40   2.0000      -0.129262        -3.5174 
  41   2.0000      -0.113429        -3.0866 
  42   2.0000      -0.110828        -3.0158 
  43   2.0000      -0.104424        -2.8415 
  44   2.0000      -0.096764        -2.6331 
  45   2.0000      -0.092187        -2.5085 
  46   2.0000      -0.085368        -2.3230 
  47   2.0000      -0.071915        -1.9569 
  48   2.0000      -0.058872        -1.6020 
  49   2.0000      -0.044996        -1.2244 
  50   2.0000      -0.017666        -0.4807 
  51   2.0000       0.021467         0.5841 
  52   2.0000       0.025339         0.6895 
  53   2.0000       0.049652         1.3511 
  54   2.0000       0.053350         1.4517 
  55   2.0000       0.057186         1.5561 
  56   2.0000       0.060639         1.6501 
  57   2.0000       0.070080         1.9070 
  58   2.0000       0.078392         2.1332 
  59   0.0000       0.205646         5.5959 
  60   0.0000       0.258132         7.0241 
  61   0.0000       0.262795         7.1510 
  62   0.0000       0.306910         8.3514 
  63   0.0000       0.314571         8.5599 
  64   0.0000       0.322891         8.7863 
  65   0.0000       0.358526         9.7560 
  66   0.0000       0.370041        10.0693 
  67   0.0000       0.377791        10.2802 
  68   0.0000       0.393433        10.7059 
  69   0.0000       0.406436        11.0597 
*Only the first 10 virtual orbitals were printed.

                    ********************************
                    * MULLIKEN POPULATION ANALYSIS *
                    ********************************

-----------------------
MULLIKEN ATOMIC CHARGES
-----------------------
   0 C :    0.000191
   1 H :   -0.013624
   2 H :   -0.033635
   3 C :    0.006990
   4 C :    0.085491
   5 O :   -0.412743
   6 O :   -0.416521
   7 O :   -0.368173
   8 C :    0.256966
   9 H :   -0.093783
  10 C :   -0.093256
  11 H :   -0.056444
  12 C :   -0.004200
  13 C :    0.051538
  14 H :   -0.062682
  15 C :   -0.031692
  16 H :   -0.064063
  17 C :    0.222033
  18 H :   -0.005393
  19 O :   -0.336487
  20 H :    0.127893
  21 C :    0.071819
  22 O :   -0.415101
  23 O :   -0.415124
Sum of atomic charges:   -2.0000000

--------------------------------
MULLIKEN REDUCED ORBITAL CHARGES
--------------------------------
  0 C s       :     3.072569  s :     3.072569
      pz      :     1.047443  p :     2.902628
      px      :     1.021525
      py      :     0.833660
      dz2     :     0.001604  d :     0.024613
      dxz     :     0.005249
      dyz     :     0.000427
      dx2y2   :     0.008098
      dxy     :     0.009236

  1 H s       :     0.989692  s :     0.989692
      pz      :     0.005122  p :     0.023932
      px      :     0.006162
      py      :     0.012648

  2 H s       :     1.009249  s :     1.009249
      pz      :     0.005258  p :     0.024386
      px      :     0.006495
      py      :     0.012633

  3 C s       :     3.168283  s :     3.168283
      pz      :     0.975741  p :     2.756527
      px      :     0.886293
      py      :     0.894493
      dz2     :     0.004955  d :     0.068201
      dxz     :     0.010515
      dyz     :     0.006916
      dx2y2   :     0.021457
      dxy     :     0.024357

  4 C s       :     3.032467  s :     3.032467
      pz      :     0.874741  p :     2.742453
      px      :     0.928225
      py      :     0.939486
      dz2     :     0.008681  d :     0.139589
      dxz     :     0.027339
      dyz     :     0.012351
      dx2y2   :     0.043958
      dxy     :     0.047259

  5 O s       :     3.716911  s :     3.716911
      pz      :     1.529001  p :     4.681893
      px      :     1.643076
      py      :     1.509816
      dz2     :     0.001786  d :     0.013940
      dxz     :     0.001485
      dyz     :     0.002947
      dx2y2   :     0.002986
      dxy     :     0.004734

  6 O s       :     3.735311  s :     3.735311
      pz      :     1.539357  p :     4.667355
      px      :     1.339152
      py      :     1.788846
      dz2     :     0.001675  d :     0.013854
      dxz     :     0.004005
      dyz     :     0.000084
      dx2y2   :     0.005257
      dxy     :     0.002832

  7 O s       :     3.744050  s :     3.744050
      pz      :     1.529156  p :     4.609477
      px      :     1.678351
      py      :     1.401971
      dz2     :     0.003253  d :     0.014646
      dxz     :     0.002181
      dyz     :     0.003795
      dx2y2   :     0.002006
      dxy     :     0.003410

  8 C s       :     2.965466  s :     2.965466
      pz      :     0.851286  p :     2.712034
      px      :     0.985280
      py      :     0.875468
      dz2     :     0.013084  d :     0.065533
      dxz     :     0.013239
      dyz     :     0.017257
      dx2y2   :     0.008320
      dxy     :     0.013633

  9 H s       :     1.073760  s :     1.073760
      pz      :     0.004179  p :     0.020023
      px      :     0.007549
      py      :     0.008294

 10 C s       :     3.227681  s :     3.227681
      pz      :     0.978525  p :     2.832403
      px      :     0.933722
      py      :     0.920156
      dz2     :     0.006880  d :     0.033171
      dxz     :     0.008828
      dyz     :     0.006359
      dx2y2   :     0.004944
      dxy     :     0.006160

 11 H s       :     1.033437  s :     1.033437
      pz      :     0.007857  p :     0.023007
      px      :     0.006767
      py      :     0.008382

 12 C s       :     3.139602  s :     3.139602
      pz      :     0.908601  p :     2.824759
      px      :     0.973618
      py      :     0.942540
      dz2     :     0.009085  d :     0.039839
      dxz     :     0.009444
      dyz     :     0.007294
      dx2y2   :     0.006798
      dxy     :     0.007217

 13 C s       :     3.200863  s :     3.200863
      pz      :     0.875342  p :     2.712322
      px      :     0.869075
      py      :     0.967905
      dz2     :     0.005129  d :     0.035277
      dxz     :     0.009684
      dyz     :     0.004739
      dx2y2   :     0.007644
      dxy     :     0.008083

 14 H s       :     1.039835  s :     1.039835
      pz      :     0.009873  p :     0.022848
      px      :     0.008141
      py      :     0.004834

 15 C s       :     3.162918  s :     3.162918
      pz      :     0.943210  p :     2.835696
      px      :     0.960968
      py      :     0.931518
      dz2     :     0.003602  d :     0.033078
      dxz     :     0.010095
      dyz     :     0.005281
      dx2y2   :     0.006567
      dxy     :     0.007533

 16 H s       :     1.041503  s :     1.041503
      pz      :     0.007755  p :     0.022560
      px      :     0.005330
      py      :     0.009475

 17 C s       :     2.946660  s :     2.946660
      pz      :     0.950486  p :     2.764634
      px      :     0.918029
      py      :     0.896119
      dz2     :     0.009404  d :     0.066672
      dxz     :     0.016416
      dyz     :     0.014072
      dx2y2   :     0.010437
      dxy     :     0.016345

 18 H s       :     0.982420  s :     0.982420
      pz      :     0.007032  p :     0.022972
      px      :     0.004585
      py      :     0.011355

 19 O s       :     3.734559  s :     3.734559
      pz      :     1.528616  p :     4.589478
      px      :     1.401772
      py      :     1.659090
      dz2     :     0.001936  d :     0.012451
      dxz     :     0.004889
      dyz     :     0.002732
      dx2y2   :     0.001360
      dxy     :     0.001533

 20 H s       :     0.805062  s :     0.805062
      pz      :     0.023647  p :     0.067046
      px      :     0.024181
      py      :     0.019218

 21 C s       :     3.031515  s :     3.031515
      pz      :     0.930281  p :     2.756200
      px      :     0.937946
      py      :     0.887973
      dz2     :     0.045171  d :     0.140466
      dxz     :     0.040912
      dyz     :     0.033067
      dx2y2   :     0.011203
      dxy     :     0.010113

 22 O s       :     3.729506  s :     3.729506
      pz      :     1.509565  p :     4.671634
      px      :     1.631757
      py      :     1.530312
      dz2     :     0.003049  d :     0.013962
      dxz     :     0.004404
      dyz     :     0.003185
      dx2y2   :     0.001633
      dxy     :     0.001690

 23 O s       :     3.722124  s :     3.722124
      pz      :     1.389357  p :     4.678876
      px      :     1.714022
      py      :     1.575497
      dz2     :     0.005868  d :     0.014124
      dxz     :     0.003869
      dyz     :     0.003481
      dx2y2   :     0.000403
      dxy     :     0.000503



                     *******************************
                     * LOEWDIN POPULATION ANALYSIS *
                     *******************************

----------------------
LOEWDIN ATOMIC CHARGES
----------------------
   0 C :   -0.096052
   1 H :    0.007613
   2 H :    0.009095
   3 C :   -0.009939
   4 C :   -0.058337
   5 O :   -0.385119
   6 O :   -0.381372
   7 O :   -0.155270
   8 C :    0.072965
   9 H :   -0.006103
  10 C :   -0.045526
  11 H :    0.004516
  12 C :   -0.056360
  13 C :   -0.005131
  14 H :    0.011895
  15 C :   -0.050777
  16 H :    0.002080
  17 C :    0.051026
  18 H :    0.011804
  19 O :   -0.165048
  20 H :    0.050147
  21 C :   -0.044798
  22 O :   -0.383127
  23 O :   -0.378179

-------------------------------
LOEWDIN REDUCED ORBITAL CHARGES
-------------------------------
  0 C s       :     2.888635  s :     2.888635
      pz      :     1.027206  p :     3.139842
      px      :     1.077425
      py      :     1.035211
      dz2     :     0.005084  d :     0.067575
      dxz     :     0.010593
      dyz     :     0.000938
      dx2y2   :     0.023115
      dxy     :     0.027845

  1 H s       :     0.920281  s :     0.920281
      pz      :     0.016763  p :     0.072105
      px      :     0.017948
      py      :     0.037395

  2 H s       :     0.918916  s :     0.918916
      pz      :     0.016919  p :     0.071989
      px      :     0.018249
      py      :     0.036821

  3 C s       :     2.899544  s :     2.899544
      pz      :     0.956050  p :     2.947634
      px      :     1.048538
      py      :     0.943045
      dz2     :     0.012423  d :     0.162762
      dxz     :     0.022161
      dyz     :     0.013853
      dx2y2   :     0.054483
      dxy     :     0.059841

  4 C s       :     2.859289  s :     2.859289
      pz      :     0.859204  p :     2.875363
      px      :     1.011849
      py      :     1.004310
      dz2     :     0.020048  d :     0.323685
      dxz     :     0.055121
      dyz     :     0.025473
      dx2y2   :     0.106318
      dxy     :     0.116724

  5 O s       :     3.571505  s :     3.571505
      pz      :     1.530789  p :     4.788793
      px      :     1.688110
      py      :     1.569894
      dz2     :     0.003472  d :     0.024821
      dxz     :     0.002260
      dyz     :     0.004262
      dx2y2   :     0.005183
      dxy     :     0.009644

  6 O s       :     3.569686  s :     3.569686
      pz      :     1.534803  p :     4.786788
      px      :     1.459749
      py      :     1.792236
      dz2     :     0.003703  d :     0.024899
      dxz     :     0.005335
      dyz     :     0.000109
      dx2y2   :     0.011199
      dxy     :     0.004553

  7 O s       :     3.464794  s :     3.464794
      pz      :     1.546537  p :     4.662981
      px      :     1.682793
      py      :     1.433650
      dz2     :     0.005557  d :     0.027495
      dxz     :     0.003344
      dyz     :     0.007647
      dx2y2   :     0.004282
      dxy     :     0.006665

  8 C s       :     2.860265  s :     2.860265
      pz      :     0.916709  p :     2.915572
      px      :     1.056035
      py      :     0.942828
      dz2     :     0.028838  d :     0.151198
      dxz     :     0.031067
      dyz     :     0.040059
      dx2y2   :     0.018061
      dxy     :     0.033172

  9 H s       :     0.943496  s :     0.943496
      pz      :     0.014160  p :     0.062607
      px      :     0.022464
      py      :     0.025983

 10 C s       :     2.875806  s :     2.875806
      pz      :     1.048571  p :     3.081234
      px      :     1.018242
      py      :     1.014421
      dz2     :     0.017390  d :     0.088486
      dxz     :     0.025223
      dyz     :     0.017218
      dx2y2   :     0.012976
      dxy     :     0.015679

 11 H s       :     0.923136  s :     0.923136
      pz      :     0.022961  p :     0.072348
      px      :     0.022683
      py      :     0.026704

 12 C s       :     2.890175  s :     2.890175
      pz      :     1.029971  p :     3.061224
      px      :     1.057326
      py      :     0.973928
      dz2     :     0.023102  d :     0.104961
      dxz     :     0.026199
      dyz     :     0.019607
      dx2y2   :     0.017911
      dxy     :     0.018142

 13 C s       :     2.870168  s :     2.870168
      pz      :     0.999257  p :     3.042850
      px      :     1.058874
      py      :     0.984719
      dz2     :     0.013071  d :     0.092114
      dxz     :     0.025949
      dyz     :     0.011385
      dx2y2   :     0.020037
      dxy     :     0.021672

 14 H s       :     0.919518  s :     0.919518
      pz      :     0.029443  p :     0.068587
      px      :     0.024018
      py      :     0.015126

 15 C s       :     2.876233  s :     2.876233
      pz      :     1.003235  p :     3.088295
      px      :     1.069994
      py      :     1.015066
      dz2     :     0.010025  d :     0.086250
      dxz     :     0.026683
      dyz     :     0.012684
      dx2y2   :     0.017073
      dxy     :     0.019785

 16 H s       :     0.930279  s :     0.930279
      pz      :     0.024261  p :     0.067642
      px      :     0.016008
      py      :     0.027373

 17 C s       :     2.850549  s :     2.850549
      pz      :     1.021277  p :     2.946467
      px      :     0.953977
      py      :     0.971213
      dz2     :     0.018773  d :     0.151958
      dxz     :     0.041147
      dyz     :     0.033687
      dx2y2   :     0.021384
      dxy     :     0.036967

 18 H s       :     0.912368  s :     0.912368
      pz      :     0.021107  p :     0.075828
      px      :     0.016768
      py      :     0.037953

 19 O s       :     3.462009  s :     3.462009
      pz      :     1.584787  p :     4.679092
      px      :     1.434882
      py      :     1.659424
      dz2     :     0.002527  d :     0.023947
      dxz     :     0.010397
      dyz     :     0.004342
      dx2y2   :     0.002905
      dxy     :     0.003776

 20 H s       :     0.771454  s :     0.771454
      pz      :     0.067981  p :     0.178399
      px      :     0.062081
      py      :     0.048337

 21 C s       :     2.850231  s :     2.850231
      pz      :     1.018924  p :     2.869675
      px      :     0.975928
      py      :     0.874822
      dz2     :     0.113030  d :     0.324892
      dxz     :     0.094348
      dyz     :     0.069941
      dx2y2   :     0.025037
      dxy     :     0.022536

 22 O s       :     3.572378  s :     3.572378
      pz      :     1.586808  p :     4.785859
      px      :     1.660202
      py      :     1.538850
      dz2     :     0.005427  d :     0.024890
      dxz     :     0.008784
      dyz     :     0.005508
      dx2y2   :     0.002234
      dxy     :     0.002936

 23 O s       :     3.568852  s :     3.568852
      pz      :     1.491084  p :     4.784159
      px      :     1.718447
      py      :     1.574629
      dz2     :     0.011978  d :     0.025168
      dxz     :     0.007248
      dyz     :     0.004727
      dx2y2   :     0.000622
      dxy     :     0.000592



                      *****************************
                      * MAYER POPULATION ANALYSIS *
                      *****************************

  NA   - Mulliken gross atomic population
  ZA   - Total nuclear charge
  QA   - Mulliken gross atomic charge
  VA   - Mayer's total valence
  BVA  - Mayer's bonded valence
  FA   - Mayer's free valence

  ATOM       NA         ZA         QA         VA         BVA        FA
  0 C      5.9998     6.0000     0.0002     3.8769     3.8769     0.0000
  1 H      1.0136     1.0000    -0.0136     1.0101     1.0101     0.0000
  2 H      1.0336     1.0000    -0.0336     1.0216     1.0216    -0.0000
  3 C      5.9930     6.0000     0.0070     3.9281     3.9281     0.0000
  4 C      5.9145     6.0000     0.0855     4.4964     4.4964    -0.0000
  5 O      8.4127     8.0000    -0.4127     2.0907     2.0907     0.0000
  6 O      8.4165     8.0000    -0.4165     2.0541     2.0541     0.0000
  7 O      8.3682     8.0000    -0.3682     2.0894     2.0894    -0.0000
  8 C      5.7430     6.0000     0.2570     3.8583     3.8583    -0.0000
  9 H      1.0938     1.0000    -0.0938     0.9890     0.9890    -0.0000
 10 C      6.0933     6.0000    -0.0933     3.9016     3.9016    -0.0000
 11 H      1.0564     1.0000    -0.0564     1.0292     1.0292    -0.0000
 12 C      6.0042     6.0000    -0.0042     3.7288     3.7288     0.0000
 13 C      5.9485     6.0000     0.0515     3.9058     3.9058     0.0000
 14 H      1.0627     1.0000    -0.0627     1.0198     1.0198     0.0000
 15 C      6.0317     6.0000    -0.0317     3.8337     3.8337     0.0000
 16 H      1.0641     1.0000    -0.0641     0.9788     0.9788    -0.0000
 17 C      5.7780     6.0000     0.2220     3.8600     3.8600    -0.0000
 18 H      1.0054     1.0000    -0.0054     1.0869     1.0869    -0.0000
 19 O      8.3365     8.0000    -0.3365     2.0301     2.0301     0.0000
 20 H      0.8721     1.0000     0.1279     1.0361     1.0361    -0.0000
 21 C      5.9282     6.0000     0.0718     4.5391     4.5391    -0.0000
 22 O      8.4151     8.0000    -0.4151     2.0688     2.0688    -0.0000
 23 O      8.4151     8.0000    -0.4151     2.0711     2.0711    -0.0000

  Mayer bond orders larger than 0.100000
B(  0-C ,  1-H ) :   0.9105 B(  0-C ,  2-H ) :   0.9045 B(  0-C ,  3-C ) :   1.9631 
B(  3-C ,  4-C ) :   0.8383 B(  3-C ,  7-O ) :   1.0311 B(  4-C ,  5-O ) :   1.8840 
B(  4-C ,  6-O ) :   1.7783 B(  5-O ,  6-O ) :   0.1240 B(  6-O , 18-H ) :   0.1190 
B(  7-O ,  8-C ) :   0.9589 B(  8-C ,  9-H ) :   0.8861 B(  8-C , 10-C ) :   0.9762 
B(  8-C , 17-C ) :   0.9614 B( 10-C , 11-H ) :   0.9377 B( 10-C , 12-C ) :   1.7841 
B( 12-C , 13-C ) :   1.0906 B( 12-C , 21-C ) :   0.8369 B( 13-C , 14-H ) :   0.9666 
B( 13-C , 15-C ) :   1.7687 B( 15-C , 16-H ) :   0.9612 B( 15-C , 17-C ) :   0.9823 
B( 17-C , 18-H ) :   0.8840 B( 17-C , 19-O ) :   1.0064 B( 19-O , 20-H ) :   0.9850 
B( 21-C , 22-O ) :   1.8512 B( 21-C , 23-O ) :   1.8566 B( 22-O , 23-O ) :   0.1229 


-------
TIMINGS
-------

Total SCF time: 0 days 0 hours 0 min 11 sec 

Total time                  ....      11.428 sec
Sum of individual times     ....      11.228 sec  ( 98.3%)

SCF preparation             ....       0.633 sec  (  5.5%)
Fock matrix formation       ....      10.076 sec  ( 88.2%)
  Startup                   ....       0.073 sec  (  0.7% of F)
  Split-RI-J                ....       0.673 sec  (  6.7% of F)
  Chain of spheres X        ....       7.940 sec  ( 78.8% of F)
  XC integration            ....       1.183 sec  ( 11.7% of F)
    XC Preparation          ....       0.000 sec  (  0.0% of XC)
    Basis function eval.    ....       0.295 sec  ( 24.9% of XC)
    Density eval.           ....       0.214 sec  ( 18.1% of XC)
    XC-Functional eval.     ....       0.062 sec  (  5.3% of XC)
    XC-Potential eval.      ....       0.239 sec  ( 20.2% of XC)
Diagonalization             ....       0.000 sec  (  0.0%)
Density matrix formation    ....       0.099 sec  (  0.9%)
Total Energy calculation    ....       0.052 sec  (  0.5%)
Population analysis         ....       0.074 sec  (  0.6%)
Orbital Transformation      ....       0.048 sec  (  0.4%)
Orbital Orthonormalization  ....       0.000 sec  (  0.0%)
DIIS solution               ....       0.062 sec  (  0.5%)
SOSCF solution              ....       0.183 sec  (  1.6%)
Finished LeanSCF after  11.5 sec

Maximum memory used throughout the entire LEANSCF-calculation: 30.4 MB


-------------------------------------------------------------------------------
                          DFT DISPERSION CORRECTION                            
                                                                               
                              DFTD3 V3.1  Rev 1                                
                          USING Becke-Johnson damping                          
-------------------------------------------------------------------------------
The B3LYP functional is recognized
Active option DFTDOPT                   ...         4   

molecular C6(AA) [au] = 6928.969403 


            DFT-D V3
 parameters
 s6 scaling factor         :     1.0000 
 a1 scaling factor         :     0.3981 
 s8 scaling factor         :     1.9889 
 a2 scaling factor         :     4.4211 
 ad hoc parameters k1-k3   :    16.0000     1.3333    -4.0000 

 Edisp/kcal,au: -32.621411126718  -0.051985522124 
 E6   /kcal   : -15.314209500 
 E8   /kcal   : -17.307201627 
 % E8         :  53.054730097 

-------------------------   ----------------
Dispersion correction           -0.051985522
-------------------------   ----------------


-------------------------   --------------------
FINAL SINGLE POINT ENERGY      -836.152417066882
-------------------------   --------------------



           ************************************************************
           *        Program running with 8 parallel MPI-processes     *
           *              working on a common directory               *
           ************************************************************

------------------------------------------------------------------------------
                              ORCA PROPERTY CALCULATIONS
------------------------------------------------------------------------------

GBWName                                 ... react_vac.gbw
Number of atoms                         ...     24
Number of basis functions               ...    264
Max core memory                         ...   3000 MB

Electric properties:
Dipole moment                           ... YES
Quadrupole moment                       ...  NO
Static polarizability (Dipole/Dipole)   ...  NO
Static polarizability (Dipole/Quad.)    ...  NO
Static polarizability (Quad./Quad.)     ...  NO
Static polarizability (Velocity)        ...  NO

Atomic electric properties:
Dipole moment                           ...  NO
Quadrupole moment                       ...  NO
Static polarizability                   ...  NO

Choice of electric origin               ... Center of mass
Position of electric origin             ...   111.239292    63.348598   105.039557

General magnetic properties:
Magnetizability                         ...  NO

EPR properties:
g-Tensor (aka g-matrix)                 ...  NO
Zero-Field splitting spin-orbit         ...  NO
Zero-field splitting spin-spin          ...  NO
Hyperfine couplings                     ...  NO (   0 nuclei)
Quadrupole couplings                    ...  NO (   0 nuclei)
Contact density                         ...  NO (   0 nuclei)

NMR properties:
Chemical shifts                         ...  NO (   0 nuclei)
Spin-rotation constants                 ...  NO (   0 nuclei)
Spin-spin couplings                     ...  NO (   0 nuclei,    0 pairs)

Choice of magnetic origin               ... GIAO
Position of magnetic origin             ...     0.000000     0.000000     0.000000

Properties with geometric perturbations:
SCF Hessian                             ...  NO
IR spectrum                             ...  NO
VCD spectrum                            ...  NO
X-ray spectroscopy properties:
SCF XES/XAS/RIXS spectra                ...  NO


-------------
DIPOLE MOMENT
-------------

Method             : SCF
Type of density    : Electron Density
Multiplicity       :   1
Irrep              :   0
Energy             :  -836.1004315447574982 Eh
Relativity type    : 
Basis              : AO
                                X                 Y                 Z
Electronic contribution:      0.837269473       0.044147389       0.441411438
Nuclear contribution   :     -3.413885452      -1.527950673      -0.311073935
                        -----------------------------------------
Total Dipole Moment    :     -2.576615979      -1.483803285       0.130337503
                        -----------------------------------------
Magnitude (a.u.)       :      2.976173711
Magnitude (Debye)      :      7.564832386



--------------------
Rotational spectrum 
--------------------
 
Rotational constants in cm-1:             0.025991             0.013875             0.011439 
Rotational constants in MHz :           779.197492           415.972384           342.942760 

Dipole components along the rotational axes: 
x,y,z [a.u.] :    -0.629707    -2.595654    -1.312882 
x,y,z [Debye]:    -1.600587    -6.597628    -3.337082 

 

Dipole moment calculation done in   0.0 sec 

Maximum memory used throughout the entire PROP-calculation: 13.7 MB

--------------------------------
SUGGESTED CITATIONS FOR THIS RUN
--------------------------------

Below you find a list of papers that are relevant to this ORCA run
We neither can nor want to force you to cite these papers, but we appreciate if you do
You receive ORCA, which is the product of decades of hard work by many enthusiastic individuals, for free
The only thing we kindly ask in return is that you cite our papers,
We deeply appreciate it, if you show your appreciation for ORCA by not just citing the generic ORCA reference.

Please note that relegating all ORCA citations to the supporting information does *not* help us.
SI sections are not indexed - citations you put there will not count into any citation statistics
But we need these citations in order to attract the funding resources that allow us to do what we are doing

Therefore, if you are a happy ORCA user, please consider citing a few of the papers listed below in the main body of your paper

In addition to the list printed below, the program has created the file react_vac.bibtex that contains the list in bibtex format
You can import this file easily into all common literature databanks and citation aid programs


List of essential papers. We consider these as the minimum necessary citations

  1. Neese,F.
     Software update: the ORCA program system, version 5.0
     WIRES Comput. Molec. Sci., 2022 12(1)e1606
     doi.org/10.1002/wcms.1606

List of papers to cite with high priority. The work reported in these papers was absolutely
necessary for this run to complete.
Our perspective: the developers of density functionals and basis sets usually get cited in chemistry papers
Good! But without the algorithms to do something with them, the functionals or basis sets would not do anything.
Hence, in our opinion, the algorithm design and method developments papers are equally worthy of getting cited

  1. Neese,F.
     An improvement of the resolution of the identity approximation for the formation of the Coulomb matrix
     J. Comp. Chem., 2003 24(14)1740-1747
     doi.org/10.1002/jcc.10318
  2. Neese,F.; Wennmohs,F.; Hansen,A.; Becker,U.
     Efficient, approximate and parallel Hartree-Fock and hybrid DFT calculations. A 'chain-of-spheres' algorithm for the Hartree-Fock exchange
     Chem. Phys., 2009 356(1-3)98-109
     doi.org/10.1016/j.chemphys.2008.10.036
  3. Helmich-Paris,B.; de Souza,B.; Neese,F.; Izsák,R.
     An improved chain of spheres for exchange algorithm
     J. Chem. Phys., 2021 155 104109
     doi.org/doi: 10.1063/5.0058766.
  4. Neese,F.
     The SHARK Integral Generation and Digestion System
     J. Comp. Chem., 2022  1-16
     doi.org/10.1002/jcc.26942
  5. Grimme,S.; Antony,J.; Ehrlich,S.; Krieg,H.
     A consistent and accurate ab initio parametrization of density functional dispersion correction (DFT-D) for the 94 elements H-Pu
     J. Chem. Phys., 2010 132 154104
     doi.org/10.1063/1.3382344
  6. Grimme,S.; Ehrlich,S.; Goerigk,L.
     Effect of the damping function in dispersion corrected density functional theory
     J. Comput. Chem., 2011 32(7)1456-1465
     doi.org/10.1002/jcc.21759

List of suggested additional citations. These are papers that are important in the 'surrounding' of 
of this run, or papers that preceded the highly important papers. If you like your results we are grateful for a citation.

  1. Izsak,R.; Neese,F.
     An overlap fitted chain of spheres exchange method
     J. Chem. Phys., 2011 135 144105
     doi.org/10.1063/1.3646921
  2. Izsak,R.; Hansen,A.; Neese,F.
     The resolution of identity and chain of spheres approximations for the LPNO-CCSD singles Fock term
     Molec. Phys., 2012 110 2413-2417
     doi.org/10.1080/00268976.2012.687466
  3. Neese,F.
     The ORCA program system
     WIRES Comput. Molec. Sci., 2012 2(1)73-78
     doi.org/10.1002/wcms.81
  4. Izsak,R.; Neese,F.; Klopper,W.
     Robust fitting techniques in the chain of spheres approximation to the Fock exchange: The role of the complementary space
     J. Chem. Phys., 2013 139 
     doi.org/10.1063/1.4819264
  5. Neese,F.
     Software update: the ORCA program system, version 4.0
     WIRES Comput. Molec. Sci., 2018 8(1)1-6
     doi.org/10.1002/wcms.1327
  6. Neese,F.; Wennmohs,F.; Becker,U.; Riplinger,C.
     The ORCA quantum chemistry program package
     J. Chem. Phys., 2020 152 Art. No. L224108
     doi.org/10.1063/5.0004608

List of optional additional citations

  1. Neese,F.
     Approximate second-order SCF convergence for spin unrestricted wavefunctions
     Chem. Phys. Lett., 2000 325(1-3)93-98
     doi.org/10.1016/s0009-2614(00)00662-x

Timings for individual modules:

Sum of individual times          ...       18.348 sec (=   0.306 min)
Startup calculation              ...        3.522 sec (=   0.059 min)  19.2 %
SCF iterations                   ...       13.564 sec (=   0.226 min)  73.9 %
Property calculations            ...        1.261 sec (=   0.021 min)   6.9 %
                             ****ORCA TERMINATED NORMALLY****
TOTAL RUN TIME: 0 days 0 hours 0 minutes 21 seconds 990 msec
