
                                 *****************
                                 * O   R   C   A *
                                 *****************

                                            #,                                       
                                            ###                                      
                                            ####                                     
                                            #####                                    
                                            ######                                   
                                           ########,                                 
                                     ,,################,,,,,                         
                               ,,#################################,,                 
                          ,,##########################################,,             
                       ,#########################################, ''#####,          
                    ,#############################################,,   '####,        
                  ,##################################################,,,,####,       
                ,###########''''           ''''###############################       
              ,#####''   ,,,,##########,,,,          '''####'''          '####       
            ,##' ,,,,###########################,,,                        '##       
           ' ,,###''''                  '''############,,,                           
         ,,##''                                '''############,,,,        ,,,,,,###''
      ,#''                                            '''#######################'''  
     '                                                          ''''####''''         
             ,#######,   #######,   ,#######,      ##                                
            ,#'     '#,  ##    ##  ,#'     '#,    #''#        ,####,   ,####,        
            ##       ##  ##   ,#'  ##            #'  '#       #'       #'  '#        
            ##       ##  #######   ##           ,######,      #####,   #    #        
            '#,     ,#'  ##    ##  '#,     ,#' ,#      #,     #,   #   #,  ,#        
             '#######'   ##     ##  '#######'  #'      '#     '####' # '####'        



                #########################################################
                #                        -***-                          #
                #          Department of theory and spectroscopy        #
                #                                                       #
                #                      Frank Neese                      #
                #                                                       #
                #     Directorship, Architecture, Infrastructure        #
                #                    SHARK, DRIVERS                     #
                #        Core code/Algorithms in most modules           #
                #                                                       #
                #        Max Planck Institute fuer Kohlenforschung      #
                #                Kaiser Wilhelm Platz 1                 #
                #                 D-45470 Muelheim/Ruhr                 #
                #                      Germany                          #
                #                                                       #
                #                  All rights reserved                  #
                #                        -***-                          #
                #########################################################


                         Program Version 6.0.1  -  RELEASE   -


 With contributions from (in alphabetic order):
[Max-Planck-Institut fuer Kohlenforschung]                               
  Daniel Aravena         : Magnetic Suceptibility                        
  Michael Atanasov       : Ab Initio Ligand Field Theory (pilot matlab implementation)
  Alexander A. Auer      : GIAO ZORA, VPT2 properties, NMR spectrum      
  Ute Becker             : All parallelization in ORCA, NUMFREQ, NUMCALC 
  Giovanni Bistoni       : ED, misc. LED, open-shell LED, HFLD           
  Martin Brehm           : Molecular dynamics                            
  Dmytro Bykov           : pre 5.0 version of the SCF Hessian            
  Marcos Casanova-Páez   : Triplet and SCS-CIS(D). UHF-(DLPNO)-IP/EA/STEOM-CCSD. UHF-CVS-IP/STEOM-CCSD   
  Vijay G. Chilkuri      : MRCI spin determinant printing, contributions to CSF-ICE 
  Pauline Colinet        : FMM embedding                                 
  Dipayan Datta          : RHF DLPNO-CCSD density                        
  Achintya Kumar Dutta   : EOM-CC, STEOM-CC                              
  Nicolas Foglia         : Exact transition moments, OPA infrastructure, MCD improvements    
  Dmitry Ganyushin       : Spin-Orbit,Spin-Spin,Magnetic field MRCI      
  Miquel Garcia-Rates    : C-PCM and meta-GGA Hessian, CCSD/C-PCM, Gaussian charge scheme 
  Tiago L. C. Gouveia    : GS-ROHF, GS-ROCIS                             
  Yang Guo               : DLPNO-NEVPT2, F12-NEVPT2, CIM, IAO-localization        
  Andreas Hansen         : Spin unrestricted coupled pair/coupled cluster methods 
  Ingolf Harden          : AUTO-CI MPn and infrastructure                
  Benjamin Helmich-Paris : MC-RPA, TRAH-(SCF,CASSCF), AVAS, COSX integrals, SCF dyn. polar. 
  Lee Huntington         : MR-EOM, pCC                                   
  Robert Izsak           : Overlap fitted RIJCOSX, COSX-SCS-MP3, EOM     
  Riya Kayal             : Wick's Theorem for AUTO-CI, AUTO-CI UHF-CCSDT 
  Emily Kempfer          : AUTO-CI, RHF CISDT and CCSDT                  
  Christian Kollmar      : KDIIS, OOCD, Brueckner-CCSD(T), CCSD density, CASPT2, CASPT2-K, improved NEVPT2 
  Axel Koslowski         : Symmetry handling                             
  Simone Kossmann        : meta-GGA functionals, TD-DFT gradient, OOMP2, (MP2 Hessian; deprecated post 5.0) 
  Lucas Lang             : DCDCAS                                        
  Marvin Lechner         : AUTO-CI (C++ implementation), FIC-MRCC        
  Spencer Leger          : CASSCF response                               
  Dagmar Lenk            : GEPOL surface, SMD, ORCA-2-JSON               
  Dimitrios Liakos       : Extrapolation schemes; Compound Job, initial MDCI parallelization 
  Dimitrios Manganas     : Further ROCIS development; embedding schemes. LFT, Crystal Embedding 
  Dimitrios Pantazis     : SARC Basis sets                               
  Anastasios Papadopoulos: AUTO-CI, single reference methods and gradients 
  Taras Petrenko         : pre 6.0 DFT Hessian and TD-DFT gradient, (ASA, deprecated), ECA, 1-Electron XAS/XES, NRVS 
  Peter Pinski           : DLPNO-MP2, DLPNO-MP2 Gradient                 
  Christoph Reimann      : Effective Core Potentials                     
  Marius Retegan         : Local ZFS, SOC                                
  Christoph Riplinger    : Optimizer, TS searches, QM/MM, DLPNO-CCSD(T), (RO)-DLPNO pert. Triples 
  Michael Roemelt        : Original ROCIS implementation                 
  Masaaki Saitow         : Open-shell DLPNO-CCSD energy and density      
  Barbara Sandhoefer     : DKH picture change effects                    
  Kantharuban Sivalingam : CASSCF convergence/infrastructure, NEVPT2 and variants, FIC-MRCI 
  Bernardo de Souza      : ESD, SOC TD-DFT                               
  Georgi L. Stoychev     : AutoAux, RI-MP2 NMR, DLPNO-MP2 response, X2C  
  Van Anh Tran           : RI-MP2 g-tensors                              
  Willem Van den Heuvel  : Paramagnetic NMR                              
  Zikuan Wang            : NOTCH, Electric field optimization            
  Frank Wennmohs         : Technical directorship and infrastructure     
  Hang Xu                : AUTO-CI-Response properties                   
                                                                         
[FACCTs GmbH]                                                            
  Markus Bursch, Miquel Garcia-Rates, Christoph Riplinger, Bernardo de Souza, Georgi L. Stoychev 
                                                                 
  APM, Basis sets (HGBS, AHGBS, def-TZVP (Ac-Lr), def2-XVPD (La-Lu)), CI-OPT, improved COSX, DLPNO-Multilevel,           
  DOCKER, DRACO, updates on ESD, GOAT, IRC, LR-CPCM, MBIS, meta-GGA TD-DFT gradient, ML-optimized integration grids, 
  MM, NACMEs, nearIR, NEB, NEB-TS, NL-DFT gradient (VV10), 2- and 3-layer-ONIOM, interface openCOSMO-RS, QMMM,   
  Crystal-QMMM, SF, symmetry and pop. for TD-DFT, r2SCAN hybrids, SOLVATOR                                   
                                                                         
[Other institutions]                                                     
  V. Asgeirsson          : NEB                                           
  Christoph Bannwarth    : sTDA-DFT, sTD-DFT, PBEh-3c, B97-3c, D3        
  Sebastian Ehlert       : rSCAN, r2SCAN, r2SCAN-3c, D4, dhf basis sets  
  Marvin Friede          : D4 for Fr, Ra, Ac-Lr                          
  Lars Goerigk           : TD-DFT with DH, B97 family of functionals     
  Stefan Grimme          : VdW corrections, initial TS optimization, DFT functionals, gCP, sTDA/sTD-DF 
  Waldemar Hujo          : DFT-NL                                        
  H. Jonsson             : NEB                                           
  Holger Kruse           : gCP                                           
  Marcel Mueller         : wB97X-3c, vDZP basis set                      
  Hagen Neugebauer       : wr2SCAN                                       
  Tobias Risthaus        : range-separated hybrid DFT                    
  Lukas Wittmann         : regularized MP2, r2SCAN double-hybrids, wr2SCAN        
                                                                         
We gratefully acknowledge several colleagues who have allowed us to      
interface, adapt or use parts of their codes:                            
  Ed Valeev, F. Pavosevic, A. Kumar             : LibInt (2-el integral package), F12 methods 
  Garnet Chan, S. Sharma, J. Yang, R. Olivares  : DMRG                   
  Ulf Ekstrom                                   : XCFun DFT Library      
  Mihaly Kallay                                 : mrcc  (arbitrary order and MRCC methods)
  Frank Weinhold                                : gennbo (NPA and NBO analysis)           
  Simon Mueller                                 : openCOSMO-RS                            
  Christopher J. Cramer and Donald G. Truhlar   : smd solvation model                     
  S Lehtola, MJT Oliveira, MAL Marques          : LibXC Library                           
  Liviu Ungur et al                             : ANISO software                          


 Your calculation uses the libint2 library for the computation of 2-el integrals
 For citations please refer to: http://libint.valeyev.net

 Your ORCA version has been built with support for libXC version: 6.2.2
 For citations please refer to: https://libxc.gitlab.io

 This ORCA versions uses:
   CBLAS   interface :  Fast vector & matrix operations
   LAPACKE interface :  Fast linear algebra routines
   SCALAPACK package :  Parallel linear algebra routines
   Shared memory     :  Shared parallel matrices
   BLAS/LAPACK       :  OpenBLAS 0.3.27  USE64BITINT DYNAMIC_ARCH NO_AFFINITY Bulldozer SINGLE_THREADED
        Core in use  :  Bulldozer
   Copyright (c) 2011-2014, The OpenBLAS Project


NOTE: MaxCore=3000 MB was set to SCF,MP2,MDCI,CIPSI,MRCI and CIS
      => If you want to overwrite this, your respective input block should be placed after the MaxCore statement


***************************************
The coordinates will be read from file: start.xyz
***************************************


Your calculation utilizes the atom-pairwise dispersion correction
with the Becke-Johnson damping scheme (D3BJ)


================================================================================

----- Orbital basis set information -----
Your calculation utilizes the basis: def2-SVP
   F. Weigend and R. Ahlrichs, Phys. Chem. Chem. Phys. 7, 3297 (2005).

----- AuxJ basis set information -----
Your calculation utilizes the auxiliary basis: def2/J
   F. Weigend, Phys. Chem. Chem. Phys. 8, 1057 (2006).

================================================================================
                                        WARNINGS
                       Please study these warnings very carefully!
================================================================================


WARNING: Geometry Optimization
  ===> : Switching off AutoStart
         For restart on a previous wavefunction, please use MOREAD

WARNING: The chosen methods will break translational/rotational symmetry
  ===> : Will NOT project out the translational and rotational degrees of freedom
         of the Hessians, in case Hessians are calculated!

WARNING: The chosen methods will break translational symmetry
  ===> : Will NOT exploit translational invariance of the Hessians,
         in case Hessians are calculated!

WARNING: The chosen methods will break translational symmetry
  ===> : Will NOT make the numerical gradients translationally invariant,
         in case numerical gradients are calculated!

================================================================================
                                       INPUT FILE
================================================================================
NAME = job.inp
|  1> ! B3LYP D3BJ def2-SVP def2/J RIJCOSX CPCM TightSCF Opt
|  2> %maxcore 3000
|  3> %pal nprocs 8 end
|  4> %cpcm epsilon 4.0 end
|  5> %scf MaxIter 300 end
|  6> %geom
|  7>    coordsys cartesian
|  8>    Calc_Hess true
|  9>    Recalc_Hess 5
| 10>    MaxIter 60
| 11> end
| 12> %pointcharges "design.pc"
| 13> * xyzfile -2 1 start.xyz
| 14> 
| 15>                          ****END OF INPUT****
================================================================================

                       *****************************
                       * Geometry Optimization Run *
                       *****************************

Geometry optimization settings:
Update method            Update   .... BFGS
Choice of coordinates    CoordSys .... Cartesian
Initial Hessian          InHess   .... Almloef's Model
Max. no of cycles        MaxIter  .... 60

Convergence Tolerances:
Energy Change            TolE     ....  5.0000e-06 Eh
Max. Gradient            TolMAXG  ....  3.0000e-04 Eh/bohr
RMS Gradient             TolRMSG  ....  1.0000e-04 Eh/bohr
Max. Displacement        TolMAXD  ....  4.0000e-03 bohr
RMS Displacement         TolRMSD  ....  2.0000e-03 bohr
Strict Convergence                .... False

------------------------------------------------------------------------------
                        ORCA OPTIMIZATION COORDINATE SETUP
------------------------------------------------------------------------------

The optimization will be done in Cartesian displacement coordinates
Initial hessian                         .... (will be read on the fly)  done
Number of atoms                         .... 24
Number of degrees of freedom            .... 72
Constrained atoms:                      

         *************************************************************
         *                GEOMETRY OPTIMIZATION CYCLE   1            *
         *************************************************************
---------------------------------
CARTESIAN COORDINATES (ANGSTROEM)
---------------------------------
  C     60.111938   34.383969   57.210132
  H     60.607199   33.429939   57.384609
  H     60.724693   35.271818   57.059193
  C     58.780577   34.503532   57.151958
  C     58.092182   35.834261   56.893354
  O     58.812467   36.818218   56.578789
  O     56.839549   35.848917   57.009617
  O     57.934615   33.426403   57.345998
  C     57.676936   32.537732   56.200806
  H     57.019017   31.763769   56.624072
  C     58.986487   31.961840   55.793172
  H     59.463930   31.242983   56.460496
  C     59.683105   32.482671   54.768151
  C     59.064321   33.483709   53.893179
  H     59.702361   33.904544   53.110969
  C     57.781253   33.865659   54.031533
  H     57.332181   34.602354   53.356629
  C     56.889799   33.271093   55.086182
  H     56.347190   34.090648   55.585880
  O     55.962863   32.397707   54.434668
  H     55.310845   32.109527   55.092770
  C     61.123200   32.062126   54.534208
  O     61.784962   31.702328   55.543381
  O     61.541071   32.106513   53.352738

----------------------------
CARTESIAN COORDINATES (A.U.)
----------------------------
  NO LB      ZA    FRAG     MASS         X           Y           Z
   0 C     6.0000    0    12.011  113.595100   64.976285  108.111482
   1 H     1.0000    0     1.008  114.531008   63.173429  108.441195
   2 H     1.0000    0     1.008  114.753039   66.654076  107.826248
   3 C     6.0000    0    12.011  111.079193   65.202226  108.001549
   4 C     6.0000    0    12.011  109.778315   67.716940  107.512858
   5 O     8.0000    0    15.999  111.139456   69.576349  106.918416
   6 O     8.0000    0    15.999  107.411181   67.744635  107.732563
   7 O     8.0000    0    15.999  109.480556   63.166747  108.368231
   8 C     6.0000    0    12.011  108.993613   61.487402  106.204132
   9 H     1.0000    0     1.008  107.750327   60.024824  107.003989
  10 C     6.0000    0    12.011  111.468306   60.399124  105.433815
  11 H     1.0000    0     1.008  112.370543   59.040681  106.694875
  12 C     6.0000    0    12.011  112.784723   61.383352  103.496806
  13 C     6.0000    0    12.011  111.615391   63.275040  101.843349
  14 H     1.0000    0     1.008  112.821112   64.070303  100.365186
  15 C     6.0000    0    12.011  109.190744   63.996821  102.104800
  16 H     1.0000    0     1.008  108.342121   65.388973  100.829416
  17 C     6.0000    0    12.011  107.506140   62.873254  104.097798
  18 H     1.0000    0     1.008  106.480758   64.421988  105.042090
  19 O     8.0000    0    15.999  105.754485   61.222794  102.866615
  20 H     1.0000    0     1.008  104.522349   60.678212  104.110247
  21 C     6.0000    0    12.011  115.506108   60.588637  103.054718
  22 O     8.0000    0    15.999  116.756657   59.908718  104.961779
  23 O     8.0000    0    15.999  116.295770   60.672517  100.822063

--------------------------------
INTERNAL COORDINATES (ANGSTROEM)
--------------------------------
 C      0   0   0     0.000000000000     0.00000000     0.00000000
 H      1   0   0     1.088989863383     0.00000000     0.00000000
 H      1   2   0     1.089278255795   118.71371059     0.00000000
 C      1   2   3     1.337984169400   122.53333633   178.86021439
 C      4   1   2     1.520395795930   122.42129410   180.67352117
 O      5   4   1     1.259338317649   117.86430047     7.98397869
 O      5   4   1     1.258102267780   116.44144955   187.69788882
 O      4   1   2     1.383296826312   122.19798630     1.79734009
 C      8   4   1     1.472276920333   117.90009257   277.32119882
 H      9   8   4     1.100468192492   103.29579790   178.09067811
 C      9   8   4     1.487528451903   107.02309521    60.79280321
 H     11   9   8     1.090884286106   118.21513549    69.64465314
 C     11   9   8     1.344324967754   121.00718757   261.74112609
 C     13  11   9     1.466474246922   120.04938653   349.80769557
 H     14  13  11     1.093640536431   116.31112146   176.92324750
 C     14  13  11     1.345842161786   122.32101579   356.58249340
 H     16  14  13     1.095390612259   121.22306820   181.08159495
 C     16  14  13     1.503490430855   121.67821129   359.07517439
 H     18  16  14     1.102630044988   108.40569783   133.99480188
 O     18  16  14     1.430553719819   107.82773122   252.99945495
 H     20  18  16     0.970192469115   107.93143701   187.73461727
 C     13  11   9     1.518374470708   120.10913882   168.27919774
 O     22  13  11     1.259290947072   117.00532896   331.47810903
 O     22  13  11     1.253976769845   116.83473561   151.49408336

---------------------------
INTERNAL COORDINATES (A.U.)
---------------------------
 C      0   0   0     0.000000000000     0.00000000     0.00000000
 H      1   0   0     2.057892604409     0.00000000     0.00000000
 H      1   2   0     2.058437587087   118.71371059     0.00000000
 C      1   2   3     2.528423651689   122.53333633   178.86021439
 C      4   1   2     2.873131669473   122.42129410   180.67352117
 O      5   4   1     2.379804530310   117.86430047     7.98397869
 O      5   4   1     2.377468734570   116.44144955   187.69788882
 O      4   1   2     2.614052163652   122.19798630     1.79734009
 C      8   4   1     2.782200172723   117.90009257   277.32119882
 H      9   8   4     2.079583502901   103.29579790   178.09067811
 C      9   8   4     2.811021390513   107.02309521    60.79280321
 H     11   9   8     2.061472544539   118.21513549    69.64465314
 C     11   9   8     2.540406024047   121.00718757   261.74112609
 C     13  11   9     2.771234709130   120.04938653   349.80769557
 H     14  13  11     2.066681102809   116.31112146   176.92324750
 C     14  13  11     2.543273105260   122.32101579   356.58249340
 H     16  14  13     2.069988266838   121.22306820   181.08159495
 C     16  14  13     2.841185159288   121.67821129   359.07517439
 H     18  16  14     2.083668812060   108.40569783   133.99480188
 O     18  16  14     2.703354750320   107.82773122   252.99945495
 H     20  18  16     1.833398063821   107.93143701   187.73461727
 C     13  11   9     2.869311918377   120.10913882   168.27919774
 O     22  13  11     2.379715012892   117.00532896   331.47810903
 O     22  13  11     2.369672673306   116.83473561   151.49408336

---------------------
BASIS SET INFORMATION
---------------------
There are 3 groups of distinct atoms

 Group   1 Type C   : 7s4p1d contracted to 3s2p1d pattern {511/31/1}
 Group   2 Type H   : 4s1p contracted to 2s1p pattern {31/1}
 Group   3 Type O   : 7s4p1d contracted to 3s2p1d pattern {511/31/1}

Atom   0C    basis set group =>   1
Atom   1H    basis set group =>   2
Atom   2H    basis set group =>   2
Atom   3C    basis set group =>   1
Atom   4C    basis set group =>   1
Atom   5O    basis set group =>   3
Atom   6O    basis set group =>   3
Atom   7O    basis set group =>   3
Atom   8C    basis set group =>   1
Atom   9H    basis set group =>   2
Atom  10C    basis set group =>   1
Atom  11H    basis set group =>   2
Atom  12C    basis set group =>   1
Atom  13C    basis set group =>   1
Atom  14H    basis set group =>   2
Atom  15C    basis set group =>   1
Atom  16H    basis set group =>   2
Atom  17C    basis set group =>   1
Atom  18H    basis set group =>   2
Atom  19O    basis set group =>   3
Atom  20H    basis set group =>   2
Atom  21C    basis set group =>   1
Atom  22O    basis set group =>   3
Atom  23O    basis set group =>   3
---------------------------------
AUXILIARY/J BASIS SET INFORMATION
---------------------------------
There are 3 groups of distinct atoms

 Group   1 Type C   : 12s5p4d2f1g contracted to 6s4p3d1f1g pattern {711111/2111/211/2/1}
 Group   2 Type H   : 5s2p1d contracted to 3s1p1d pattern {311/2/1}
 Group   3 Type O   : 12s5p4d2f1g contracted to 6s4p3d1f1g pattern {711111/2111/211/2/1}

Atom   0C    basis set group =>   1
Atom   1H    basis set group =>   2
Atom   2H    basis set group =>   2
Atom   3C    basis set group =>   1
Atom   4C    basis set group =>   1
Atom   5O    basis set group =>   3
Atom   6O    basis set group =>   3
Atom   7O    basis set group =>   3
Atom   8C    basis set group =>   1
Atom   9H    basis set group =>   2
Atom  10C    basis set group =>   1
Atom  11H    basis set group =>   2
Atom  12C    basis set group =>   1
Atom  13C    basis set group =>   1
Atom  14H    basis set group =>   2
Atom  15C    basis set group =>   1
Atom  16H    basis set group =>   2
Atom  17C    basis set group =>   1
Atom  18H    basis set group =>   2
Atom  19O    basis set group =>   3
Atom  20H    basis set group =>   2
Atom  21C    basis set group =>   1
Atom  22O    basis set group =>   3
Atom  23O    basis set group =>   3


           ************************************************************
           *        Program running with 8 parallel MPI-processes     *
           *              working on a common directory               *
           ************************************************************
------------------------------------------------------------------------------
                             ORCA STARTUP CALCULATIONS
                           -- RI-GTO INTEGRALS CHOSEN --
------------------------------------------------------------------------------
------------------------------------------------------------------------------
                   ___                                                        
                  /   \      - P O W E R E D   B Y -                         
                 /     \                                                     
                 |  |  |   _    _      __       _____    __    __             
                 |  |  |  | |  | |    /  \     |  _  \  |  |  /  |          
                  \  \/   | |  | |   /    \    | | | |  |  | /  /          
                 / \  \   | |__| |  /  /\  \   | |_| |  |  |/  /          
                |  |  |   |  __  | /  /__\  \  |    /   |      \           
                |  |  |   | |  | | |   __   |  |    \   |  |\   \          
                \     /   | |  | | |  |  |  |  | |\  \  |  | \   \       
                 \___/    |_|  |_| |__|  |__|  |_| \__\ |__|  \__/        
                                                                              
                      - O R C A' S   B I G   F R I E N D -                    
                                      &                                       
                       - I N T E G R A L  F E E D E R -                       
                                                                              
 v1 FN, 2020, v2 2021, v3 2022-2024                                           
------------------------------------------------------------------------------


----------------------
SHARK INTEGRAL PACKAGE
----------------------

Number of atoms                             ...     24
Number of basis functions                   ...    264
Number of shells                            ...    120
Maximum angular momentum                    ...      2
Integral batch strategy                     ... SHARK/LIBINT Hybrid
RI-J (if used) integral strategy            ... SPLIT-RIJ (Revised 2003 algorithm where possible)
Printlevel                                  ...      1
Contraction scheme used                     ... SEGMENTED contraction
Prescreening option                         ... SCHWARTZ
   Thresh                                   ... 2.500e-11
   Tcut                                     ... 2.500e-12
   Tpresel                                  ... 2.500e-12 
Coulomb Range Separation                    ... NOT USED
Exchange Range Separation                   ... NOT USED
Multipole approximations                    ... NOT USED
Finite Nucleus Model                        ... NOT USED
CABS basis                                  ... NOT available
Auxiliary Coulomb fitting basis             ... AVAILABLE
   # of basis functions in Aux-J            ...    872
   # of shells in Aux-J                     ...    280
   Maximum angular momentum in Aux-J        ...      4
Auxiliary J/K fitting basis                 ... NOT available
Auxiliary Correlation fitting basis         ... NOT available
Auxiliary 'external' fitting basis          ... NOT available

Checking pre-screening integrals            ... done (  0.0 sec) Dimension = 120
Check shell pair data                       ... done (  0.0 sec)
Shell pair information
Shell pair cut-off parameter TPreSel        ...   2.5e-12
Total number of shell pairs                 ...      7260
Shell pairs after pre-screening             ...      6312
Total number of primitive shell pairs       ...     27260
Primitive shell pairs kept                  ...     15769
          la=0 lb=0:   1793 shell pairs
          la=1 lb=0:   2271 shell pairs
          la=1 lb=1:    756 shell pairs
          la=2 lb=0:    837 shell pairs
          la=2 lb=1:    551 shell pairs
          la=2 lb=2:    104 shell pairs

Reading point charge file                   ... ok (1 point charges)
Calculating one electron integrals          ... done (  0.0 sec)
Calculating RI/J V-Matrix + Cholesky decomp.... done (  0.7 sec)
Calculating Nuclear repulsion               ... (+Point charges) done (  0.0 sec) ENN=   1103.020006152914 Eh

Diagonalization of the overlap matrix:
Smallest eigenvalue                        ... 4.683e-04
Time for diagonalization                   ...    0.026 sec
Threshold for overlap eigenvalues          ... 1.000e-07
Number of eigenvalues below threshold      ... 0
Time for construction of square roots      ...    0.261 sec
Total time needed                          ...    0.352 sec

-------------------
DFT GRID GENERATION
-------------------

General Integration Accuracy     IntAcc      ... 4.388
Radial Grid Type                 RadialGrid  ... OptM3 with GC (2021)
Angular Grid (max. ang.)         AngularGrid ... 4 (Lebedev-302)
Angular grid pruning method      GridPruning ... 4 (adaptive)
Weight generation scheme         WeightScheme... mBecke (2022)
Basis function cutoff            BFCut       ... 1.0000e-11
Integration weight cutoff        WCut        ... 1.0000e-14
Partially contracted basis set               ... off
Rotationally invariant grid construction     ... off
Angular grids for H and He will be reduced by one unit

Total number of grid points                  ...   121630
Total number of batches                      ...     1912
Average number of points per batch           ...       63
Average number of grid points per atom       ...     5068

--------------------
COSX GRID GENERATION
--------------------

GRIDX 1
-------
General Integration Accuracy     IntAcc      ... 3.816
Radial Grid Type                 RadialGrid  ... OptM3 with GC (2021)
Angular Grid (max. ang.)         AngularGrid ... 1 (Lebedev-50)
Angular grid pruning method      GridPruning ... 4 (adaptive)
Weight generation scheme         WeightScheme... mBecke (2022)
Basis function cutoff            BFCut       ... 1.0000e-11
Integration weight cutoff        WCut        ... 1.0000e-14
Partially contracted basis set               ... on
Rotationally invariant grid construction     ... off
Angular grids for H and He will be reduced by one unit

Total number of grid points                  ...    15403
Total number of batches                      ...      134
Average number of points per batch           ...      114
Average number of grid points per atom       ...      642
UseSFitting                                  ... on

GRIDX 2
-------
General Integration Accuracy     IntAcc      ... 4.020
Radial Grid Type                 RadialGrid  ... OptM3 with GC (2021)
Angular Grid (max. ang.)         AngularGrid ... 2 (Lebedev-110)
Angular grid pruning method      GridPruning ... 4 (adaptive)
Weight generation scheme         WeightScheme... mBecke (2022)
Basis function cutoff            BFCut       ... 1.0000e-11
Integration weight cutoff        WCut        ... 1.0000e-14
Partially contracted basis set               ... on
Rotationally invariant grid construction     ... off
Angular grids for H and He will be reduced by one unit

Total number of grid points                  ...    34411
Total number of batches                      ...      281
Average number of points per batch           ...      122
Average number of grid points per atom       ...     1434
UseSFitting                                  ... on

GRIDX 3
-------
General Integration Accuracy     IntAcc      ... 4.338
Radial Grid Type                 RadialGrid  ... OptM3 with GC (2021)
Angular Grid (max. ang.)         AngularGrid ... 3 (Lebedev-194)
Angular grid pruning method      GridPruning ... 4 (adaptive)
Weight generation scheme         WeightScheme... mBecke (2022)
Basis function cutoff            BFCut       ... 1.0000e-11
Integration weight cutoff        WCut        ... 1.0000e-14
Partially contracted basis set               ... on
Rotationally invariant grid construction     ... off
Angular grids for H and He will be reduced by one unit

Total number of grid points                  ...    75571
Total number of batches                      ...      603
Average number of points per batch           ...      125
Average number of grid points per atom       ...     3149
UseSFitting                                  ... on
Initializing property integral containers    ... done (  0.1 sec)

SHARK setup successfully completed in   8.5 seconds

Maximum memory used throughout the entire STARTUP-calculation: 33.9 MB


           ************************************************************
           *        Program running with 8 parallel MPI-processes     *
           *              working on a common directory               *
           ************************************************************
-------------------------------------------------------------------------------
                                 ORCA GUESS
                   Start orbitals & Density for SCF / CASSCF
-------------------------------------------------------------------------------

------------
SCF SETTINGS
------------
Hamiltonian:
 Density Functional     Method          .... DFT(GTOs)
 Exchange Functional    Exchange        .... B88
   X-Alpha parameter    XAlpha          ....  0.666667
   Becke's b parameter  XBeta           ....  0.004200
 Correlation Functional Correlation     .... LYP
 LDA part of GGA corr.  LDAOpt          .... VWN-5
 Gradients option       PostSCFGGA      .... off
 Hybrid DFT is turned on
   Fraction HF Exchange ScalHFX         ....  0.200000
   Scaling of DF-GGA-X  ScalDFX         ....  0.720000
   Scaling of DF-GGA-C  ScalDFC         ....  0.810000
   Scaling of DF-LDA-C  ScalLDAC        ....  1.000000
   Perturbative correction              ....  0.000000
   NL short-range parameter             ....  4.800000
 RI-approximation to the Coulomb term is turned on
   Number of AuxJ basis functions       .... 872
   RIJ-COSX (HFX calculated with COS-X)).... on


General Settings:
 Integral files         IntName         .... job
 Hartree-Fock type      HFTyp           .... RHF
 Total Charge           Charge          ....   -2
 Multiplicity           Mult            ....    1
 Number of Electrons    NEL             ....  118
 Basis Dimension        Dim             ....  264
 Nuclear Repulsion      ENuc            ....   1103.0200061529 Eh

Convergence Acceleration:
 AO-DIIS                CNVDIIS         .... on
   Start iteration      DIISMaxIt       ....    12
   Startup error        DIISStart       ....  0.200000
   # of expansion vecs  DIISMaxEq       ....     5
   Bias factor          DIISBfac        ....   1.050
   Max. coefficient     DIISMaxC        ....  10.000
 MO-DIIS                CNVKDIIS        .... off
 Trust-Rad. Augm. Hess. CNVTRAH         .... auto
   Auto Start mean grad. ratio tolernc. ....  1.125000
   Auto Start start iteration           ....    50
   Auto Start num. interpolation iter.  ....    10
   Max. Number of Micro iterations      ....    24
   Max. Number of Macro iterations      .... Maxiter - #DIIS iter
   Number of Davidson start vectors     ....     2
   Converg. threshold    (grad. norm)   ....   1.000e-05
   Grad. Scal. Fac. for Micro threshold ....   0.100
   Minimum threshold for Micro iter.    ....   1.000e-02
   NR start threshold (gradient norm)   ....   1.000e-04
   Initial trust radius                 ....   0.400
   Minimum AH scaling param. (alpha)    ....   1.000
   Maximum AH scaling param. (alpha)    .... 1000.000
   Quad. conv. algorithm                .... NR
   White noise on init. David. guess    .... on
   Maximum white noise                  ....   0.010
   Pseudo random numbers                .... off
   Inactive MOs                         .... canonical
   Orbital update algorithm             .... Taylor
   Preconditioner                       .... Diag
   Full preconditioner red. dimension   ....   250
 SOSCF                  CNVSOSCF        .... on
   Start iteration      SOSCFMaxIt      ....   150
   Startup grad/error   SOSCFStart      ....  0.003300
   Hessian update       SOSCFHessUp     .... L-BFGS
 Level Shifting         CNVShift        .... on
   Level shift para.    LevelShift      ....    0.2500
   Turn off err/grad.   ShiftErr        ....    0.0010
 Zerner damping         CNVZerner       .... off
 Static damping         CNVDamp         .... on
   Fraction old density DampFac         ....    0.7000
   Max. Damping (<1)    DampMax         ....    0.9800
   Min. Damping (>=0)   DampMin         ....    0.0000
   Turn off err/grad.   DampErr         ....    0.1000

SCF Procedure:
 Maximum # iterations   MaxIter         ....   300
 SCF integral mode      SCFMode         .... Direct
   Integral package                     .... SHARK and LIBINT hybrid scheme
 Reset frequency        DirectResetFreq ....    20
 Integral Threshold     Thresh          ....  2.500e-11 Eh
 Primitive CutOff       TCut            ....  2.500e-12 Eh

Convergence Tolerance:
 Convergence Check Mode ConvCheckMode   .... Total+1el-Energy
 Convergence forced     ConvForced      .... 0
 Energy Change          TolE            ....  1.000e-08 Eh
 1-El. energy change                    ....  1.000e-05 Eh
 Orbital Gradient       TolG            ....  1.000e-05
 Orbital Rotation angle TolX            ....  1.000e-05
 DIIS Error             TolErr          ....  5.000e-07

------------------------------
INITIAL GUESS: MODEL POTENTIAL
------------------------------
Loading Hartree-Fock densities                     ... done
Calculating cut-offs                               ... done
Initializing the effective Hamiltonian             ... done
Setting up the integral package (SHARK)            ... done
Starting the Coulomb interaction                   ... done (   0.3 sec)
Making the grid                                    ... done (   0.8 sec)
Mapping shells                                     ... done
Starting the XC term evaluation                    ... done (   0.2 sec)
  promolecular density results
     # of electrons  =    115.995184324
     EX              =   -102.842458325
     EC              =     -4.058902881
     EX+EC           =   -106.901361206
Transforming the Hamiltonian                       ... done (   0.0 sec)
Diagonalizing the Hamiltonian                      ... done (   0.0 sec)
Back transforming the eigenvectors                 ... done (   0.0 sec)
Now organizing SCF variables                       ... done
                      ------------------
                      INITIAL GUESS DONE (   1.5 sec)
                      ------------------
             **** ENERGY FILE WAS UPDATED (job.en.tmp) ****
Finished Guess after   2.7 sec
Maximum memory used throughout the entire GUESS-calculation: 20.0 MB


           ************************************************************
           *        Program running with 8 parallel MPI-processes     *
           *              working on a common directory               *
           ************************************************************

-------------------------------------------------------------------------------------------
                                      ORCA LEAN-SCF
                              memory conserving SCF solver
-------------------------------------------------------------------------------------------

--------------------
CPCM SOLVATION MODEL
--------------------
CPCM parameters:
  Epsilon                                         ...       4.0000
  Refrac                                          ...       1.3300
  Rsolv                                           ...       1.3000
  Surface type                                    ... GAUSSIAN VDW
  Discretization scheme                           ... Constant charge density
    Threshold for H atoms                         ...       5.0000 (charges/Ang^2)
    Threshold for non-H atoms                     ...       5.0000 (charges/Ang^2)
  Epsilon function type                           ...         CPCM
Solvent:                                          ... CUSTOM
Radii:
  Scheme                                          ... Element-dependent radii
  Radius for C  used is    3.8550 Bohr (=   2.0400 Ang.)
  Radius for H  used is    2.4944 Bohr (=   1.3200 Ang.)
  Radius for O  used is    3.4469 Bohr (=   1.8240 Ang.)
Calculating surface                               ...        done! (  0.0s)
Cavity surface points                             ...         2123
Cavity Volume                                     ...    1726.4932
Cavity Surface-area                               ...     858.3516
Calculating surface distance matrix               ...        done! (  0.1s)
Performing Cholesky decomposition & store         ...        done! (  1.7s)
Overall time for CPCM initialization              ...                 1.8s

----------------------------------------D-I-I-S--------------------------------------------
Iteration    Energy (Eh)           Delta-E    RMSDP     MaxDP     DIISErr   Damp  Time(sec)
-------------------------------------------------------------------------------------------
               ***  Starting incremental Fock matrix formation  ***
    1    -835.5601816317287103     0.00e+00  4.36e-03  2.04e-01  3.05e-01  0.700   6.5
Warning: op=0 Small HOMO/LUMO gap (   0.084) - skipping pre-diagonalization
         Will do a full diagonalization
    2    -835.8307779369292803    -2.71e-01  3.02e-03  1.47e-01  1.33e-01  0.700   4.0
                               ***Turning on AO-DIIS***
    3    -835.9334272331457214    -1.03e-01  1.18e-03  3.61e-02  4.23e-02  0.700   3.9
    4    -835.9954668471832520    -6.20e-02  1.78e-03  4.41e-02  2.15e-02  0.000   3.7
    5    -836.1327482809756475    -1.37e-01  4.43e-04  1.87e-02  5.35e-03  0.000   3.8
                              *** Initializing SOSCF ***
---------------------------------------S-O-S-C-F--------------------------------------
Iteration    Energy (Eh)           Delta-E    RMSDP     MaxDP     MaxGrad    Time(sec)
--------------------------------------------------------------------------------------
    6    -836.1333405295197281    -5.92e-04  1.40e-04  5.36e-03  1.18e-03     3.7
               *** Restarting incremental Fock matrix formation ***
    7    -836.1333944858415634    -5.40e-05  1.05e-04  2.87e-03  2.49e-04     6.4
    8    -836.1333975082450252    -3.02e-06  3.55e-05  1.08e-03  4.96e-04     4.9
    9    -836.1334029130318868    -5.40e-06  2.84e-05  8.10e-04  1.51e-04     4.7
   10    -836.1334032515048875    -3.38e-07  8.31e-06  2.59e-04  7.35e-05     4.5
   11    -836.1334036156706588    -3.64e-07  7.62e-06  1.92e-04  4.08e-05     4.1
   12    -836.1334036068867590     8.78e-09  3.83e-06  1.08e-04  4.17e-05     4.0
                 **** Energy Check signals convergence ****

               *****************************************************
               *                     SUCCESS                       *
               *           SCF CONVERGED AFTER  12 CYCLES          *
               *****************************************************

Recomputing exchange energy using gridx3       ... done (    8.540 sec)
Old exchange energy                            :    -20.892072694 Eh
New exchange energy                            :    -20.892124465 Eh
Exchange energy change after final integration :     -0.000051772 Eh
Total energy after final integration           :   -836.133455378 Eh
             **** ENERGY FILE WAS UPDATED (job.en.tmp) ****

----------------
TOTAL SCF ENERGY
----------------

Total Energy       :       -836.13345537848727 Eh          -22752.34803 eV

Components:
Nuclear Repulsion  :       1103.02000615291377 Eh           30014.70029 eV
Electronic Energy  :      -1938.93314724546781 Eh          -52761.05326 eV
One Electron Energy:      -3380.47923394534655 Eh          -91987.51651 eV
Two Electron Energy:       1441.54608669987874 Eh           39226.46325 eV
CPCM Dielectric    :         -0.22026251433280 Eh              -5.99365 eV

Virial components:
Potential Energy   :      -1665.63614787436745 Eh          -45324.26382 eV
Kinetic Energy     :        829.50269249588007 Eh           22571.91580 eV
Virial Ratio       :          2.00799366046981

DFT components:
N(Alpha)           :       59.000035369468 electrons
N(Beta)            :       59.000035369468 electrons
N(Total)           :      118.000070738937 electrons
E(X)               :      -83.146734565532 Eh       
E(C)               :       -4.848070147625 Eh       
E(XC)              :      -87.994804713157 Eh       

CPCM Solvation Model Properties:
Surface-charge          :          1.98240039050822
Corrected charge        :          2.00000000000000
Outlying charge corr.   :          0.00001481370205 Eh               0.00040 eV
Free-energy (cav+disp)  :  This term is not implemented in the current solvation scheme

---------------
SCF CONVERGENCE
---------------

  Last Energy change         ...   -8.7839e-09  Tolerance :   1.0000e-08
  Last MAX-Density change    ...    1.0755e-04  Tolerance :   1.0000e-07
  Last RMS-Density change    ...    3.8294e-06  Tolerance :   5.0000e-09
  Last DIIS Error            ...    1.1769e-03  Tolerance :   5.0000e-07
  Last Orbital Gradient      ...    4.1737e-05  Tolerance :   1.0000e-05
  Last Orbital Rotation      ...    4.2863e-05  Tolerance :   1.0000e-05


----------------
ORBITAL ENERGIES
----------------

  NO   OCC          E(Eh)            E(eV) 
   0   2.0000     -18.999741      -517.0092 
   1   2.0000     -18.994442      -516.8650 
   2   2.0000     -18.910945      -514.5930 
   3   2.0000     -18.908950      -514.5387 
   4   2.0000     -18.857653      -513.1428 
   5   2.0000     -18.854510      -513.0573 
   6   2.0000     -10.107690      -275.0442 
   7   2.0000     -10.095860      -274.7223 
   8   2.0000     -10.091132      -274.5936 
   9   2.0000     -10.076210      -274.1876 
  10   2.0000     -10.056389      -273.6483 
  11   2.0000     -10.037736      -273.1407 
  12   2.0000     -10.036994      -273.1205 
  13   2.0000     -10.025569      -272.8096 
  14   2.0000     -10.016318      -272.5579 
  15   2.0000     -10.015285      -272.5298 
  16   2.0000      -0.884652       -24.0726 
  17   2.0000      -0.871299       -23.7093 
  18   2.0000      -0.844031       -22.9673 
  19   2.0000      -0.794711       -21.6252 
  20   2.0000      -0.756687       -20.5905 
  21   2.0000      -0.703501       -19.1432 
  22   2.0000      -0.670984       -18.2584 
  23   2.0000      -0.609157       -16.5760 
  24   2.0000      -0.583703       -15.8834 
  25   2.0000      -0.561345       -15.2750 
  26   2.0000      -0.481650       -13.1064 
  27   2.0000      -0.444044       -12.0830 
  28   2.0000      -0.437992       -11.9184 
  29   2.0000      -0.386316       -10.5122 
  30   2.0000      -0.378060       -10.2875 
  31   2.0000      -0.350580        -9.5398 
  32   2.0000      -0.329778        -8.9737 
  33   2.0000      -0.323430        -8.8010 
  34   2.0000      -0.300956        -8.1894 
  35   2.0000      -0.290852        -7.9145 
  36   2.0000      -0.286909        -7.8072 
  37   2.0000      -0.274839        -7.4788 
  38   2.0000      -0.254303        -6.9199 
  39   2.0000      -0.247224        -6.7273 
  40   2.0000      -0.240318        -6.5394 
  41   2.0000      -0.236243        -6.4285 
  42   2.0000      -0.224573        -6.1109 
  43   2.0000      -0.212966        -5.7951 
  44   2.0000      -0.200221        -5.4483 
  45   2.0000      -0.198046        -5.3891 
  46   2.0000      -0.184813        -5.0290 
  47   2.0000      -0.167285        -4.5521 
  48   2.0000      -0.160182        -4.3588 
  49   2.0000      -0.145434        -3.9575 
  50   2.0000      -0.128194        -3.4883 
  51   2.0000      -0.101168        -2.7529 
  52   2.0000      -0.089756        -2.4424 
  53   2.0000      -0.082181        -2.2363 
  54   2.0000      -0.074942        -2.0393 
  55   2.0000      -0.065307        -1.7771 
  56   2.0000      -0.032623        -0.8877 
  57   2.0000      -0.030415        -0.8276 
  58   2.0000      -0.013640        -0.3712 
  59   0.0000       0.107732         2.9315 
  60   0.0000       0.137272         3.7354 
  61   0.0000       0.181141         4.9291 
  62   0.0000       0.213918         5.8210 
  63   0.0000       0.224937         6.1208 
  64   0.0000       0.233218         6.3462 
  65   0.0000       0.254001         6.9117 
  66   0.0000       0.257964         7.0196 
  67   0.0000       0.274617         7.4727 
  68   0.0000       0.290064         7.8930 
  69   0.0000       0.301129         8.1941 
*Only the first 10 virtual orbitals were printed.

                    ********************************
                    * MULLIKEN POPULATION ANALYSIS *
                    ********************************

-----------------------
MULLIKEN ATOMIC CHARGES
-----------------------
   0 C :    0.002124
   1 H :   -0.002715
   2 H :   -0.021833
   3 C :    0.005739
   4 C :    0.061165
   5 O :   -0.439306
   6 O :   -0.442547
   7 O :   -0.391777
   8 C :    0.219398
   9 H :   -0.051495
  10 C :   -0.086564
  11 H :   -0.040814
  12 C :   -0.009017
  13 C :    0.040359
  14 H :   -0.038499
  15 C :   -0.080678
  16 H :   -0.041490
  17 C :    0.243316
  18 H :   -0.035323
  19 O :   -0.347822
  20 H :    0.162426
  21 C :    0.104227
  22 O :   -0.443769
  23 O :   -0.365103
Sum of atomic charges:   -2.0000000

--------------------------------
MULLIKEN REDUCED ORBITAL CHARGES
--------------------------------
  0 C s       :     3.097393  s :     3.097393
      pz      :     1.017285  p :     2.875764
      px      :     1.001739
      py      :     0.856740
      dz2     :     0.001582  d :     0.024719
      dxz     :     0.005456
      dyz     :     0.000572
      dx2y2   :     0.008048
      dxy     :     0.009061

  1 H s       :     0.978535  s :     0.978535
      pz      :     0.004736  p :     0.024181
      px      :     0.006249
      py      :     0.013196

  2 H s       :     0.997461  s :     0.997461
      pz      :     0.005234  p :     0.024372
      px      :     0.007101
      py      :     0.012038

  3 C s       :     3.158238  s :     3.158238
      pz      :     1.000741  p :     2.768064
      px      :     0.877981
      py      :     0.889343
      dz2     :     0.004895  d :     0.067959
      dxz     :     0.010486
      dyz     :     0.006839
      dx2y2   :     0.021544
      dxy     :     0.024195

  4 C s       :     3.042584  s :     3.042584
      pz      :     0.865169  p :     2.757926
      px      :     0.933019
      py      :     0.959737
      dz2     :     0.009434  d :     0.138326
      dxz     :     0.027457
      dyz     :     0.012579
      dx2y2   :     0.043001
      dxy     :     0.045854

  5 O s       :     3.710652  s :     3.710652
      pz      :     1.542414  p :     4.714995
      px      :     1.644956
      py      :     1.527625
      dz2     :     0.001793  d :     0.013659
      dxz     :     0.001611
      dyz     :     0.002826
      dx2y2   :     0.002823
      dxy     :     0.004606

  6 O s       :     3.729871  s :     3.729871
      pz      :     1.562341  p :     4.699108
      px      :     1.346941
      py      :     1.789826
      dz2     :     0.001642  d :     0.013568
      dxz     :     0.003893
      dyz     :     0.000088
      dx2y2   :     0.005153
      dxy     :     0.002792

  7 O s       :     3.744166  s :     3.744166
      pz      :     1.544334  p :     4.633250
      px      :     1.672044
      py      :     1.416873
      dz2     :     0.003167  d :     0.014362
      dxz     :     0.002160
      dyz     :     0.003654
      dx2y2   :     0.001958
      dxy     :     0.003424

  8 C s       :     2.988716  s :     2.988716
      pz      :     0.842300  p :     2.727841
      px      :     0.996707
      py      :     0.888835
      dz2     :     0.012161  d :     0.064045
      dxz     :     0.013091
      dyz     :     0.017270
      dx2y2   :     0.008334
      dxy     :     0.013190

  9 H s       :     1.031262  s :     1.031262
      pz      :     0.004124  p :     0.020233
      px      :     0.007551
      py      :     0.008558

 10 C s       :     3.218500  s :     3.218500
      pz      :     0.985839  p :     2.834938
      px      :     0.928972
      py      :     0.920126
      dz2     :     0.006344  d :     0.033126
      dxz     :     0.008394
      dyz     :     0.006067
      dx2y2   :     0.005559
      dxy     :     0.006761

 11 H s       :     1.017756  s :     1.017756
      pz      :     0.007636  p :     0.023058
      px      :     0.006445
      py      :     0.008977

 12 C s       :     3.138112  s :     3.138112
      pz      :     0.907222  p :     2.830628
      px      :     0.990102
      py      :     0.933303
      dz2     :     0.008680  d :     0.040277
      dxz     :     0.009420
      dyz     :     0.006757
      dx2y2   :     0.007526
      dxy     :     0.007895

 13 C s       :     3.215054  s :     3.215054
      pz      :     0.880179  p :     2.709182
      px      :     0.870795
      py      :     0.958208
      dz2     :     0.004804  d :     0.035405
      dxz     :     0.009649
      dyz     :     0.004638
      dx2y2   :     0.007726
      dxy     :     0.008588

 14 H s       :     1.015607  s :     1.015607
      pz      :     0.009677  p :     0.022892
      px      :     0.008160
      py      :     0.005055

 15 C s       :     3.179513  s :     3.179513
      pz      :     0.960118  p :     2.868187
      px      :     0.958719
      py      :     0.949350
      dz2     :     0.003394  d :     0.032978
      dxz     :     0.010272
      dyz     :     0.004876
      dx2y2   :     0.006589
      dxy     :     0.007848

 16 H s       :     1.018848  s :     1.018848
      pz      :     0.008023  p :     0.022642
      px      :     0.005330
      py      :     0.009290

 17 C s       :     2.935941  s :     2.935941
      pz      :     0.945221  p :     2.753136
      px      :     0.917507
      py      :     0.890407
      dz2     :     0.009169  d :     0.067608
      dxz     :     0.016755
      dyz     :     0.014856
      dx2y2   :     0.010427
      dxy     :     0.016401

 18 H s       :     1.012805  s :     1.012805
      pz      :     0.007045  p :     0.022518
      px      :     0.004856
      py      :     0.010617

 19 O s       :     3.732161  s :     3.732161
      pz      :     1.540513  p :     4.603424
      px      :     1.413918
      py      :     1.648993
      dz2     :     0.001839  d :     0.012237
      dxz     :     0.004787
      dyz     :     0.002827
      dx2y2   :     0.001277
      dxy     :     0.001507

 20 H s       :     0.771043  s :     0.771043
      pz      :     0.023017  p :     0.066531
      px      :     0.024615
      py      :     0.018899

 21 C s       :     3.022382  s :     3.022382
      pz      :     0.923863  p :     2.732039
      px      :     0.920621
      py      :     0.887555
      dz2     :     0.045790  d :     0.141352
      dxz     :     0.042150
      dyz     :     0.033108
      dx2y2   :     0.011606
      dxy     :     0.008697

 22 O s       :     3.731924  s :     3.731924
      pz      :     1.498020  p :     4.698174
      px      :     1.656438
      py      :     1.543716
      dz2     :     0.003153  d :     0.013671
      dxz     :     0.004468
      dyz     :     0.002970
      dx2y2   :     0.001505
      dxy     :     0.001575

 23 O s       :     3.738296  s :     3.738296
      pz      :     1.379420  p :     4.611972
      px      :     1.707298
      py      :     1.525255
      dz2     :     0.005847  d :     0.014835
      dxz     :     0.004121
      dyz     :     0.003713
      dx2y2   :     0.000514
      dxy     :     0.000639



                     *******************************
                     * LOEWDIN POPULATION ANALYSIS *
                     *******************************

----------------------
LOEWDIN ATOMIC CHARGES
----------------------
   0 C :   -0.078009
   1 H :    0.013372
   2 H :    0.011333
   3 C :   -0.026156
   4 C :   -0.061109
   5 O :   -0.411553
   6 O :   -0.405308
   7 O :   -0.172991
   8 C :    0.073701
   9 H :    0.007985
  10 C :   -0.051653
  11 H :    0.009806
  12 C :   -0.049878
  13 C :   -0.003325
  14 H :    0.019970
  15 C :   -0.068912
  16 H :    0.008195
  17 C :    0.048822
  18 H :   -0.000426
  19 O :   -0.167414
  20 H :    0.070940
  21 C :   -0.039140
  22 O :   -0.400254
  23 O :   -0.327998

-------------------------------
LOEWDIN REDUCED ORBITAL CHARGES
-------------------------------
  0 C s       :     2.891975  s :     2.891975
      pz      :     1.000855  p :     3.118551
      px      :     1.075536
      py      :     1.042161
      dz2     :     0.004994  d :     0.067482
      dxz     :     0.011159
      dyz     :     0.001210
      dx2y2   :     0.022989
      dxy     :     0.027130

  1 H s       :     0.913305  s :     0.913305
      pz      :     0.015897  p :     0.073322
      px      :     0.017954
      py      :     0.039471

  2 H s       :     0.917103  s :     0.917103
      pz      :     0.016585  p :     0.071564
      px      :     0.019521
      py      :     0.035458

  3 C s       :     2.896520  s :     2.896520
      pz      :     0.977619  p :     2.966756
      px      :     1.046898
      py      :     0.942238
      dz2     :     0.012165  d :     0.162880
      dxz     :     0.022184
      dyz     :     0.014023
      dx2y2   :     0.054891
      dxy     :     0.059618

  4 C s       :     2.864141  s :     2.864141
      pz      :     0.851078  p :     2.873413
      px      :     1.011543
      py      :     1.010791
      dz2     :     0.021610  d :     0.323556
      dxz     :     0.056812
      dyz     :     0.026319
      dx2y2   :     0.105154
      dxy     :     0.113660

  5 O s       :     3.569623  s :     3.569623
      pz      :     1.544964  p :     4.817484
      px      :     1.690648
      py      :     1.581873
      dz2     :     0.003321  d :     0.024446
      dxz     :     0.002506
      dyz     :     0.004312
      dx2y2   :     0.004974
      dxy     :     0.009332

  6 O s       :     3.567828  s :     3.567828
      pz      :     1.555720  p :     4.812988
      px      :     1.464694
      py      :     1.792574
      dz2     :     0.003612  d :     0.024492
      dxz     :     0.005221
      dyz     :     0.000118
      dx2y2   :     0.010938
      dxy     :     0.004602

  7 O s       :     3.467561  s :     3.467561
      pz      :     1.557078  p :     4.678365
      px      :     1.676211
      py      :     1.445076
      dz2     :     0.005422  d :     0.027064
      dxz     :     0.003412
      dyz     :     0.007365
      dx2y2   :     0.004095
      dxy     :     0.006770

  8 C s       :     2.862368  s :     2.862368
      pz      :     0.910376  p :     2.915363
      px      :     1.060316
      py      :     0.944671
      dz2     :     0.026964  d :     0.148567
      dxz     :     0.031051
      dyz     :     0.040388
      dx2y2   :     0.018165
      dxy     :     0.031999

  9 H s       :     0.928197  s :     0.928197
      pz      :     0.014195  p :     0.063818
      px      :     0.022876
      py      :     0.026747

 10 C s       :     2.873717  s :     2.873717
      pz      :     1.045825  p :     3.089150
      px      :     1.018397
      py      :     1.024928
      dz2     :     0.015514  d :     0.088786
      dxz     :     0.024218
      dyz     :     0.016900
      dx2y2   :     0.014779
      dxy     :     0.017375

 11 H s       :     0.917756  s :     0.917756
      pz      :     0.022806  p :     0.072438
      px      :     0.021953
      py      :     0.027679

 12 C s       :     2.891744  s :     2.891744
      pz      :     1.010570  p :     3.052563
      px      :     1.071529
      py      :     0.970464
      dz2     :     0.021373  d :     0.105571
      dxz     :     0.025712
      dyz     :     0.018560
      dx2y2   :     0.020502
      dxy     :     0.019424

 13 C s       :     2.872666  s :     2.872666
      pz      :     0.992580  p :     3.038332
      px      :     1.064105
      py      :     0.981647
      dz2     :     0.012097  d :     0.092327
      dxz     :     0.025618
      dyz     :     0.011029
      dx2y2   :     0.020826
      dxy     :     0.022758

 14 H s       :     0.910834  s :     0.910834
      pz      :     0.028825  p :     0.069196
      px      :     0.024404
      py      :     0.015967

 15 C s       :     2.877743  s :     2.877743
      pz      :     1.008148  p :     3.105139
      px      :     1.073216
      py      :     1.023775
      dz2     :     0.009452  d :     0.086030
      dxz     :     0.026904
      dyz     :     0.011669
      dx2y2   :     0.017446
      dxy     :     0.020559

 16 H s       :     0.923296  s :     0.923296
      pz      :     0.024849  p :     0.068510
      px      :     0.016052
      py      :     0.027608

 17 C s       :     2.848511  s :     2.848511
      pz      :     1.019061  p :     2.948041
      px      :     0.959344
      py      :     0.969636
      dz2     :     0.017936  d :     0.154627
      dxz     :     0.042051
      dyz     :     0.036185
      dx2y2   :     0.021183
      dxy     :     0.037272

 18 H s       :     0.926237  s :     0.926237
      pz      :     0.021266  p :     0.074189
      px      :     0.017346
      py      :     0.035577

 19 O s       :     3.457721  s :     3.457721
      pz      :     1.592624  p :     4.686312
      px      :     1.442434
      py      :     1.651253
      dz2     :     0.002333  d :     0.023381
      dxz     :     0.009964
      dyz     :     0.004586
      dx2y2   :     0.002689
      dxy     :     0.003810

 20 H s       :     0.750779  s :     0.750779
      pz      :     0.066628  p :     0.178282
      px      :     0.063162
      py      :     0.048492

 21 C s       :     2.846931  s :     2.846931
      pz      :     1.021668  p :     2.866468
      px      :     0.978329
      py      :     0.866472
      dz2     :     0.114313  d :     0.325741
      dxz     :     0.097238
      dyz     :     0.068104
      dx2y2   :     0.026790
      dxy     :     0.019297

 22 O s       :     3.571290  s :     3.571290
      pz      :     1.575751  p :     4.804459
      px      :     1.679177
      py      :     1.549531
      dz2     :     0.005797  d :     0.024505
      dxz     :     0.009080
      dyz     :     0.004962
      dx2y2   :     0.002168
      dxy     :     0.002498

 23 O s       :     3.573607  s :     3.573607
      pz      :     1.485979  p :     4.728311
      px      :     1.715141
      py      :     1.527190
      dz2     :     0.011874  d :     0.026081
      dxz     :     0.007802
      dyz     :     0.004900
      dx2y2   :     0.000784
      dxy     :     0.000722



                      *****************************
                      * MAYER POPULATION ANALYSIS *
                      *****************************

  NA   - Mulliken gross atomic population
  ZA   - Total nuclear charge
  QA   - Mulliken gross atomic charge
  VA   - Mayer's total valence
  BVA  - Mayer's bonded valence
  FA   - Mayer's free valence

  ATOM       NA         ZA         QA         VA         BVA        FA
  0 C      5.9979     6.0000     0.0021     3.8763     3.8763     0.0000
  1 H      1.0027     1.0000    -0.0027     1.0402     1.0402    -0.0000
  2 H      1.0218     1.0000    -0.0218     1.0159     1.0159    -0.0000
  3 C      5.9943     6.0000     0.0057     3.9151     3.9151     0.0000
  4 C      5.9388     6.0000     0.0612     4.5175     4.5175     0.0000
  5 O      8.4393     8.0000    -0.4393     2.0585     2.0585     0.0000
  6 O      8.4425     8.0000    -0.4425     2.0257     2.0257     0.0000
  7 O      8.3918     8.0000    -0.3918     2.0663     2.0663     0.0000
  8 C      5.7806     6.0000     0.2194     3.8654     3.8654     0.0000
  9 H      1.0515     1.0000    -0.0515     0.9958     0.9958     0.0000
 10 C      6.0866     6.0000    -0.0866     3.9014     3.9014    -0.0000
 11 H      1.0408     1.0000    -0.0408     1.0296     1.0296    -0.0000
 12 C      6.0090     6.0000    -0.0090     3.7192     3.7192    -0.0000
 13 C      5.9596     6.0000     0.0404     3.9100     3.9100     0.0000
 14 H      1.0385     1.0000    -0.0385     1.0252     1.0252     0.0000
 15 C      6.0807     6.0000    -0.0807     3.8258     3.8258    -0.0000
 16 H      1.0415     1.0000    -0.0415     0.9825     0.9825    -0.0000
 17 C      5.7567     6.0000     0.2433     3.8744     3.8744     0.0000
 18 H      1.0353     1.0000    -0.0353     1.0736     1.0736     0.0000
 19 O      8.3478     8.0000    -0.3478     2.0405     2.0405     0.0000
 20 H      0.8376     1.0000     0.1624     1.0192     1.0192     0.0000
 21 C      5.8958     6.0000     0.1042     4.5027     4.5027    -0.0000
 22 O      8.4438     8.0000    -0.4438     2.0366     2.0366     0.0000
 23 O      8.3651     8.0000    -0.3651     2.1247     2.1247     0.0000

  Mayer bond orders larger than 0.100000
B(  0-C ,  1-H ) :   0.9074 B(  0-C ,  2-H ) :   0.9186 B(  0-C ,  3-C ) :   1.9427 
B(  3-C ,  4-C ) :   0.8498 B(  3-C ,  7-O ) :   1.0506 B(  4-C ,  5-O ) :   1.8775 
B(  4-C ,  6-O ) :   1.7803 B(  5-O ,  6-O ) :   0.1134 B(  6-O , 18-H ) :   0.1052 
B(  7-O ,  8-C ) :   0.9143 B(  8-C ,  9-H ) :   0.9020 B(  8-C , 10-C ) :   0.9943 
B(  8-C , 17-C ) :   0.9636 B( 10-C , 11-H ) :   0.9443 B( 10-C , 12-C ) :   1.7666 
B( 12-C , 13-C ) :   1.0857 B( 12-C , 21-C ) :   0.8319 B( 13-C , 14-H ) :   0.9718 
B( 13-C , 15-C ) :   1.7658 B( 15-C , 16-H ) :   0.9653 B( 15-C , 17-C ) :   0.9724 
B( 17-C , 18-H ) :   0.8857 B( 17-C , 19-O ) :   1.0288 B( 19-O , 20-H ) :   0.9744 
B( 21-C , 22-O ) :   1.7875 B( 21-C , 23-O ) :   1.8824 B( 22-O , 23-O ) :   0.1264 


-------
TIMINGS
-------

Total SCF time: 0 days 0 hours 1 min 6 sec 

Total time                  ....      66.493 sec
Sum of individual times     ....      65.904 sec  ( 99.1%)

SCF preparation             ....       3.348 sec  (  5.0%)
Fock matrix formation       ....      59.770 sec  ( 89.9%)
  Startup                   ....       0.315 sec  (  0.5% of F)
  Split-RI-J                ....       5.536 sec  (  9.3% of F)
  Chain of spheres X        ....      38.086 sec  ( 63.7% of F)
  XC integration            ....       8.283 sec  ( 13.9% of F)
    XC Preparation          ....       0.000 sec  (  0.0% of XC)
    Basis function eval.    ....       2.535 sec  ( 30.6% of XC)
    Density eval.           ....       1.654 sec  ( 20.0% of XC)
    XC-Functional eval.     ....       0.400 sec  (  4.8% of XC)
    XC-Potential eval.      ....       1.621 sec  ( 19.6% of XC)
  CPCM terms                ....       6.596 sec  ( 11.0% of F)
Diagonalization             ....       0.000 sec  (  0.0%)
Density matrix formation    ....       0.490 sec  (  0.7%)
Total Energy calculation    ....       0.317 sec  (  0.5%)
Population analysis         ....       0.118 sec  (  0.2%)
Orbital Transformation      ....       0.210 sec  (  0.3%)
Orbital Orthonormalization  ....       0.000 sec  (  0.0%)
DIIS solution               ....       1.064 sec  (  1.6%)
SOSCF solution              ....       0.588 sec  (  0.9%)
Finished LeanSCF after  66.7 sec

Maximum memory used throughout the entire LEANSCF-calculation: 31.3 MB


-------------------------------------------------------------------------------
                          DFT DISPERSION CORRECTION                            
                                                                               
                              DFTD3 V3.1  Rev 1                                
                          USING Becke-Johnson damping                          
-------------------------------------------------------------------------------
The B3LYP functional is recognized
Active option DFTDOPT                   ...         4   

molecular C6(AA) [au] = 6928.104088 


            DFT-D V3
 parameters
 s6 scaling factor         :     1.0000 
 a1 scaling factor         :     0.3981 
 s8 scaling factor         :     1.9889 
 a2 scaling factor         :     4.4211 
 ad hoc parameters k1-k3   :    16.0000     1.3333    -4.0000 

 Edisp/kcal,au: -33.251947657889  -0.052990345939 
 E6   /kcal   : -15.586009181 
 E8   /kcal   : -17.665938477 
 % E8         :  53.127530028 

-------------------------   ----------------
Dispersion correction           -0.052990346
-------------------------   ----------------


-------------------------   --------------------
FINAL SINGLE POINT ENERGY      -836.186445724427
-------------------------   --------------------



           ************************************************************
           *        Program running with 8 parallel MPI-processes     *
           *              working on a common directory               *
           ************************************************************
------------------------------------------------------------------------------
                         ORCA SCF GRADIENT CALCULATION
------------------------------------------------------------------------------

Nuc. rep. gradient        (SHARK) ... done (  0.0 sec)
HCore & Overlap gradient  (SHARK) ... done (  0.3 sec)
Split-RIJ-J gradient      (SHARK) ... done (  1.7 sec)
COSX-gradient                     ... done ( 25.0 sec)
XC gradient                       ... done (  5.2 sec)
CPCM gradient                     ... done (  2.1 sec)
Point charge gradient             ... done (  0.4 sec)
Dispersion correction             ... done (  0.1 sec)

-------------------
DISPERSION GRADIENT
-------------------

   1   C   :    0.000719142    0.000642678    0.001006688
   2   H   :    0.000343235    0.000112923    0.000431404
   3   H   :    0.000306724    0.000201333    0.000183982
   4   C   :    0.000129305    0.000705807    0.001016869
   5   C   :   -0.000096694    0.001011120    0.000602580
   6   O   :    0.000022034    0.000652276    0.000099441
   7   O   :   -0.000394333    0.000649856    0.000348056
   8   O   :   -0.000220778   -0.000103038    0.000726685
   9   C   :   -0.000488344   -0.000591319    0.000271984
  10   H   :   -0.000272164   -0.000351415    0.000241368
  11   C   :    0.000077888   -0.000904605    0.000174017
  12   H   :    0.000066267   -0.000498013    0.000189466
  13   C   :    0.000584812   -0.000586592   -0.000643492
  14   C   :    0.000142879    0.000085973   -0.001183762
  15   H   :    0.000089918    0.000178324   -0.000388192
  16   C   :   -0.000439355    0.000170891   -0.001146286
  17   H   :   -0.000136263    0.000209483   -0.000391133
  18   C   :   -0.000773235   -0.000250700   -0.000383186
  19   H   :   -0.000489896    0.000073365   -0.000064562
  20   O   :   -0.000669994   -0.000218682   -0.000247196
  21   H   :   -0.000370798   -0.000160784   -0.000048445
  22   C   :    0.000761164   -0.000476256   -0.000418709
  23   O   :    0.000634047   -0.000379091   -0.000042387
  24   O   :    0.000474441   -0.000173533   -0.000335190

Difference to translation invariance:
           :   -0.0000000000    0.0000000000    0.0000000000

Difference to rotation invariance:
           :    0.0000000000    0.0000000000    0.0000000000

Norm of the Dispersion gradient    ...    0.0041598468
RMS gradient                       ...    0.0004902426
MAX gradient                       ...    0.0011837618

------------------
CARTESIAN GRADIENT
------------------

   1   C   :   -0.002191944    0.001119472   -0.005148509
   2   H   :   -0.001222883    0.001318454    0.002538567
   3   H   :    0.000386834   -0.001531165    0.000524780
   4   C   :    0.002984393    0.005259134    0.000407220
   5   C   :    0.005077564   -0.013654320    0.005723397
   6   O   :   -0.001878404    0.003182218   -0.003928944
   7   O   :    0.004976062   -0.001048364   -0.001576826
   8   O   :    0.000258103    0.000577644   -0.000858400
   9   C   :   -0.005309404   -0.003246388   -0.001293777
  10   H   :    0.002721136   -0.000744381   -0.001768442
  11   C   :    0.007293011    0.001018141    0.003117314
  12   H   :   -0.001660340    0.000344387    0.000041621
  13   C   :    0.001589598   -0.000205621   -0.001307082
  14   C   :    0.000541637    0.001787260    0.000954989
  15   H   :   -0.000427989    0.001465438   -0.000160832
  16   C   :   -0.000330646    0.000975276   -0.000882812
  17   H   :    0.000077319   -0.000484823   -0.000292184
  18   C   :   -0.002186445   -0.002654647   -0.002370212
  19   H   :    0.000134604   -0.000565319   -0.002224431
  20   O   :    0.003424594    0.004962438    0.002394241
  21   H   :   -0.002800736   -0.001869822    0.000008400
  22   C   :   -0.026189918    0.008056614    0.014538338
  23   O   :    0.007343841   -0.003587991   -0.010538023
  24   O   :    0.014147492   -0.014482313   -0.006576138

Difference to translation invariance:
           :    0.0067574794   -0.0140086786   -0.0086777430

Difference to rotation invariance:
           :    0.9046161577    1.6990963970   -2.0403891847

Norm of the Cartesian gradient     ...    0.0467561580
RMS gradient                       ...    0.0055102661
MAX gradient                       ...    0.0261899178

-------
TIMINGS
-------

Total SCF gradient time     ....       34.856 sec

Densities                   ....       0.002 sec  (  0.0%)
One electron gradient       ....       0.313 sec  (  0.9%)
RI-J Coulomb gradient       ....       1.703 sec  (  4.9%)
COSX gradient               ....      25.009 sec  ( 71.7%)
XC gradient                 ....       5.167 sec  ( 14.8%)
CPCM gradient               ....       2.134 sec  (  6.1%)
   A-Matrix (El+Nuc)        ....       0.522 sec  (  1.5%)
   Potential                ....       1.613 sec  (  4.6%)

Maximum memory used throughout the entire SCFGRAD-calculation: 36.0 MB


           ************************************************************
           *        Program running with 8 parallel MPI-processes     *
           *              working on a common directory               *
           ************************************************************

------------------------------------------------------------------------------
                         ORCA PROPERTY INTEGRAL CALCULATIONS
------------------------------------------------------------------------------

GBWName                                   ... job.gbw
Number of atoms                           ...     24
Number of basis functions                 ...    264
Max core memory                           ...   3000 MB

Dipole integrals                          ...  NO
Quadrupole integrals                      ...  NO
Linear momentum integrals                 ...  NO
Angular momentum integrals                ...  NO
Higher moments length integrals           ...  NO
Higher moments velocity integrals         ...  NO
Kinetic energy integrals                  ...  NO
GIAO right hand sides                     ...  NO
GIAO dipole derivative integrals          ...  NO
SOC integrals                             ...  NO
EPR diamagnetic integrals (GIAO)          ...  NO
EPR gauge integrals                       ...  NO
Field gradient integrals                  ...  NO (   0 nuclei)
Spin-dipole/Fermi contact integrals       ...  NO (   0 nuclei)
Contact density integrals                 ...  NO (   0 nuclei)
Nucleus-orbit integrals                   ...  NO (   0 nuclei)
Geometric perturbations                   ... YES (  24 nuclei)

Choice of electric origin   ... Center of mass
Position of electric origin ... (111.1122, 63.4056,105.1131) 
Choice of magnetic origin   ... GIAO
Position of magnetic origin ... (  0.0000,  0.0000,  0.0000) 

Calculating integrals                     ... Geometrical perturbation right hand sides

-----------------------
GEOMETRIC PERTURBATIONS (24 nuclei)
-----------------------

MaxCore                            ...   3000 MB
Number of batches                  ...      1

BATCH   0: Atoms    0 -   23 ( 72 perturbations)
   => H(core) and overlap derivative integrals     ... done (     0.5 sec)
   => Making and storing internal U-coefficients   ... done (     0.2 sec)
   => RI-J derivative integrals                    ... done (     8.2 sec)
   => RI-J response operators                      ... done (     2.6 sec)
   => Chain of spheres derivative integrals        ... done (    23.3 sec)
   => Chain of spheres response operator           ... done (    28.9 sec)
   => XC derivative integrals                      ... done (    69.2 sec)
   => XC response operators                        ... done (    23.1 sec)
   => CPCM derivative integrals                    ... done (    23.3 sec)
   => CPCM response operators                      ... done (    34.7 sec)
   => Completing and storing right hand sides      ... done (     0.1 sec)
   => Total time for right hand sides = 195.5 sec

  geometrical perturbations done (195.7 sec)

Property integrals calculated in 195.7 sec

Maximum memory used throughout the entire PROPINT-calculation: 352.2 MB


           ************************************************************
           *        Program running with 8 parallel MPI-processes     *
           *              working on a common directory               *
           ************************************************************
------------------------------------------------------------------------------
                            ORCA SCF RESPONSE CALCULATION
------------------------------------------------------------------------------

GBWName                                 ... job.gbw
Number of atoms                         ...     24
Number of basis functions               ...    264
Max core memory                         ...   3000 MB

Electric field perturbation             ...  NO
Quadrupolar field perturbation          ...  NO
Magnetic field perturbation (no GIAO)   ...  NO
Magnetic field perturbation (with GIAO) ...  NO
Linear momentum (velocity) perturbation ...  NO
Spin-orbit coupling perturbation        ...  NO
Choice of electric origin               ... Center of mass
Position of electric origin             ...   111.112224    63.405597   105.113142
Choice of magnetic origin               ... GIAO
Position of magnetic origin             ...     0.000000     0.000000     0.000000
Nuclear geometric perturbations         ... YES (  72 perturbations)
Nucleus-orbit perturbations             ...  NO (   0 perturbations)
Spin-dipole/Fermi contact perturbations ...  NO (   0 perturbations)

Total number of real perturbations      ...     72
Total number of imaginary perturbations ...      0
Total number of triplet perturbations   ...      0
Total number of SOC perturbations       ...      0

Using XC Grid                  ... (job.grid_cpscf.tmp) 
Recalculating density on grid  ... (job.grho_cpscf0.tmp) done
Calculating the xc-kernel      ... (job.fxc_cpscf0.tmp) done

                                **********************
                                * REAL PERTURBATIONS *
                                **********************



-------------------
SHARK CP-SCF DRIVER
-------------------

Dimension of the orbital basis          ...    264
Dimension of the CPSCF-problem          ...  12095
Number of operators                     ...      1
Max. number of iterations               ...    128
[...]
    Threshold for H atoms                         ...       5.0000 (charges/Ang^2)
    Threshold for non-H atoms                     ...       5.0000 (charges/Ang^2)
  Epsilon function type                           ...         CPCM
Solvent:                                          ... CUSTOM
Radii:
  Scheme                                          ... Element-dependent radii
  Radius for C  used is    3.8550 Bohr (=   2.0400 Ang.)
  Radius for H  used is    2.4944 Bohr (=   1.3200 Ang.)
  Radius for O  used is    3.4469 Bohr (=   1.8240 Ang.)
Calculating surface                               ...        done! (  0.0s)
Cavity surface points                             ...         2162
Cavity Volume                                     ...    1596.5076
Cavity Surface-area                               ...     879.2912
Calculating surface distance matrix               ...        done! (  0.1s)
Performing Cholesky decomposition & store         ...        done! (  0.6s)
Overall time for CPCM initialization              ...                 0.7s

----------------------------------------D-I-I-S--------------------------------------------
Iteration    Energy (Eh)           Delta-E    RMSDP     MaxDP     DIISErr   Damp  Time(sec)
-------------------------------------------------------------------------------------------
               ***  Starting incremental Fock matrix formation  ***
    1    -836.2094444934721196     0.00e+00  1.17e-04  2.33e-03  1.13e-02  0.700   6.5
    2    -836.2099861744411555    -5.42e-04  1.06e-04  2.13e-03  8.79e-03  0.700   3.5
                               ***Turning on AO-DIIS***
    3    -836.2104097762598940    -4.24e-04  8.61e-05  1.81e-03  6.52e-03  0.700   3.3
    4    -836.2107204790656851    -3.11e-04  2.18e-04  4.47e-03  4.72e-03  0.000   3.3
                              *** Initializing SOSCF ***
---------------------------------------S-O-S-C-F--------------------------------------
Iteration    Energy (Eh)           Delta-E    RMSDP     MaxDP     MaxGrad    Time(sec)
--------------------------------------------------------------------------------------
    5    -836.2115006280153011    -7.80e-04  1.56e-05  4.46e-04  3.48e-04     3.6
               *** Restarting incremental Fock matrix formation ***
    6    -836.2115032245806105    -2.60e-06  1.67e-05  6.10e-04  1.14e-04     6.0
    7    -836.2115028997188801     3.25e-07  1.00e-05  4.19e-04  2.62e-04     4.3
    8    -836.2115039561949743    -1.06e-06  3.06e-06  9.91e-05  1.80e-05     3.9
    9    -836.2115039503214575     5.87e-09  1.54e-06  5.50e-05  1.13e-05     3.8
                 **** Energy Check signals convergence ****

               *****************************************************
               *                     SUCCESS                       *
               *           SCF CONVERGED AFTER   9 CYCLES          *
               *****************************************************

Recomputing exchange energy using gridx3       ... done (    8.396 sec)
Old exchange energy                            :    -20.888530609 Eh
New exchange energy                            :    -20.888509729 Eh
Exchange energy change after final integration :      0.000020880 Eh
Total energy after final integration           :   -836.211483071 Eh
             **** ENERGY FILE WAS UPDATED (job.en.tmp) ****

----------------
TOTAL SCF ENERGY
----------------

Total Energy       :       -836.21148307060264 Eh          -22754.47127 eV

Components:
Nuclear Repulsion  :       1083.18391147251259 Eh           29474.93271 eV
Electronic Energy  :      -1919.17826433651157 Eh          -52223.49556 eV
One Electron Energy:      -3337.43914460438464 Eh          -90816.33614 eV
Two Electron Energy:       1418.26088026787306 Eh           38592.84057 eV
CPCM Dielectric    :         -0.21715108632239 Eh              -5.90898 eV

Virial components:
Potential Energy   :      -1665.61248730451598 Eh          -45323.61999 eV
Kinetic Energy     :        829.40100423391334 Eh           22569.14872 eV
Virial Ratio       :          2.00821132214927

DFT components:
N(Alpha)           :       58.999987284527 electrons
N(Beta)            :       58.999987284527 electrons
N(Total)           :      117.999974569055 electrons
E(X)               :      -83.130949296608 Eh       
E(C)               :       -4.845663159678 Eh       
E(XC)              :      -87.976612456286 Eh       

CPCM Solvation Model Properties:
Surface-charge          :          1.98276033600108
Corrected charge        :          2.00000000000000
Outlying charge corr.   :          0.00001404468680 Eh               0.00038 eV
Free-energy (cav+disp)  :  This term is not implemented in the current solvation scheme

---------------
SCF CONVERGENCE
---------------

  Last Energy change         ...   -5.8735e-09  Tolerance :   1.0000e-08
  Last MAX-Density change    ...    5.4977e-05  Tolerance :   1.0000e-07
  Last RMS-Density change    ...    1.5387e-06  Tolerance :   5.0000e-09
  Last DIIS Error            ...    3.4766e-04  Tolerance :   5.0000e-07
  Last Orbital Gradient      ...    1.1307e-05  Tolerance :   1.0000e-05
  Last Orbital Rotation      ...    2.0403e-05  Tolerance :   1.0000e-05


Total SCF time: 0 days 0 hours 0 min 49 sec 
Finished LeanSCF after  55.2 sec

Maximum memory used throughout the entire LEANSCF-calculation: 40.5 MB


-------------------------------------------------------------------------------
                          DFT DISPERSION CORRECTION                            
                                                                               
                              DFTD3 V3.1  Rev 1                                
                          USING Becke-Johnson damping                          
-------------------------------------------------------------------------------
-------------------------   ----------------
Dispersion correction           -0.050593374
-------------------------   ----------------


-------------------------   --------------------
FINAL SINGLE POINT ENERGY      -836.262076444753
-------------------------   --------------------



           ************************************************************
           *        Program running with 8 parallel MPI-processes     *
           *              working on a common directory               *
           ************************************************************
------------------------------------------------------------------------------
                         ORCA SCF GRADIENT CALCULATION
------------------------------------------------------------------------------

Nuc. rep. gradient        (SHARK) ... done (  0.0 sec)
HCore & Overlap gradient  (SHARK) ... done (  0.3 sec)
Split-RIJ-J gradient      (SHARK) ... done (  1.7 sec)
COSX-gradient                     ... done ( 22.5 sec)
XC gradient                       ... done (  4.5 sec)
CPCM gradient                     ... done (  1.9 sec)
Point charge gradient             ... done (  0.4 sec)
Dispersion correction             ... done (  0.1 sec)

-------------------
DISPERSION GRADIENT
-------------------

   1   C   :   -0.000079538    0.000718408    0.001036776
   2   H   :    0.000054752    0.000220268    0.000480254
   3   H   :    0.000092511    0.000246856    0.000207501
   4   C   :   -0.000576572    0.000471125    0.000874292
   5   C   :   -0.000651046    0.000521475    0.000376091
   6   O   :   -0.000310819    0.000362111    0.000099104
   7   O   :   -0.000706485    0.000267280    0.000087177
   8   O   :   -0.000305969   -0.000301790    0.000527707
   9   C   :   -0.000117214   -0.000718324    0.000080372
  10   H   :   -0.000096554   -0.000468087    0.000126113
  11   C   :    0.000473790   -0.000644609    0.000208380
  12   H   :    0.000247951   -0.000365118    0.000227745
  13   C   :    0.000926232   -0.000061758   -0.000345871
  14   C   :    0.000377457    0.000277162   -0.000871039
  15   H   :    0.000098864    0.000193359   -0.000304971
  16   C   :   -0.000058349    0.000145311   -0.001063457
  17   H   :   -0.000081070    0.000154376   -0.000358636
  18   C   :   -0.000311539   -0.000460719   -0.000626268
  19   H   :   -0.000376216   -0.000103898   -0.000255913
  20   O   :   -0.000356870   -0.000444448   -0.000413530
  21   H   :   -0.000226905   -0.000295898   -0.000157286
  22   C   :    0.000860567    0.000080179   -0.000038626
  23   O   :    0.000613047   -0.000019039    0.000189482
  24   O   :    0.000509976    0.000225777   -0.000085397

Difference to translation invariance:
           :    0.0000000000   -0.0000000000   -0.0000000000

Difference to rotation invariance:
           :    0.0000000000    0.0000000000    0.0000000000

Norm of the Dispersion gradient    ...    0.0036891091
RMS gradient                       ...    0.0004347657
MAX gradient                       ...    0.0010634573

------------------
CARTESIAN GRADIENT
------------------

   1   C   :   -0.000528596    0.000466901    0.000018735
   2   H   :    0.000015727   -0.000253554   -0.000317854
   3   H   :    0.000368004   -0.001802052   -0.000761797
   4   C   :    0.000201343    0.003171806    0.001117077
   5   C   :    0.001428352    0.000047188    0.000124398
   6   O   :    0.000388068    0.000534360    0.000308238
   7   O   :    0.000117237   -0.000585263   -0.000366748
   8   O   :   -0.001269566   -0.000777877    0.000684427
   9   C   :   -0.000152281    0.000017224   -0.001788921
  10   H   :   -0.000517827   -0.002152778   -0.000200485
  11   C   :    0.003019733    0.001001115   -0.000192712
  12   H   :    0.000067259   -0.000336746   -0.000030898
  13   C   :   -0.000995199   -0.001202110   -0.000554925
  14   C   :    0.002177075    0.000700880    0.000593041
  15   H   :   -0.000107407   -0.000552653   -0.000085338
  16   C   :   -0.000647636   -0.001114556    0.000212054
  17   H   :   -0.000587310    0.000293197   -0.000990568
  18   C   :    0.000167167   -0.000330558   -0.000177352
  19   H   :   -0.000779120    0.000167006    0.000065249
  20   O   :   -0.000149428   -0.000712063   -0.000573137
  21   H   :   -0.000317635   -0.000213156    0.000204520
  22   C   :   -0.000081089   -0.000696275    0.000447248
  23   O   :   -0.000023954   -0.000108457   -0.000411316
  24   O   :    0.000494476   -0.000036039   -0.000395760

Difference to translation invariance:
           :    0.0022873926   -0.0044744616   -0.0030728229

Difference to rotation invariance:
           :    0.2729691354    0.5917346207   -0.6581454002

Norm of the Cartesian gradient     ...    0.0074217359
RMS gradient                       ...    0.0008746600
MAX gradient                       ...    0.0031718063

-------
TIMINGS
-------

Total SCF gradient time     ....       31.432 sec

Densities                   ....       0.002 sec  (  0.0%)
One electron gradient       ....       0.300 sec  (  1.0%)
RI-J Coulomb gradient       ....       1.716 sec  (  5.5%)
COSX gradient               ....      22.457 sec  ( 71.4%)
XC gradient                 ....       4.494 sec  ( 14.3%)
CPCM gradient               ....       1.925 sec  (  6.1%)
   A-Matrix (El+Nuc)        ....       0.533 sec  (  1.7%)
   Potential                ....       1.392 sec  (  4.4%)

Maximum memory used throughout the entire SCFGRAD-calculation: 35.4 MB
------------------------------------------------------------------------------
                         ORCA GEOMETRY RELAXATION STEP
------------------------------------------------------------------------------

Reading the OPT-File                    .... done
Number of atoms                         ....  24
Number of degrees of freedom            ....  72
Current Energy                          ....  -836.262076445 Eh
Current gradient norm                   ....     0.007421736 Eh/bohr
Maximum allowed component of the step   ....  0.300
Current trust radius                    ....  0.700
Updating the approximate Hessian        .... done
Forming augmented Hessian.
Diagonalizing augmented Hessian.
Reducing step size.
The input lambda is                     ....    -0.001558
   iter:   5  x=   -0.002006  g=  457.374433 f(x)=     0.000000
The output lambda is                    ....    -0.002006 (6 iterations)
The step size is now                    ....  0.700
Storing new coordinates                 .... done
The predicted energy change is          .... -0.001131855
Previously predicted energy change      .... -0.001349927
Actually observed energy change         .... -0.001289874
Ratio of predicted to observed change   .... 0.955514137
New trust radius                        .... 0.700000000

                                .--------------------.
          ----------------------|Geometry convergence|-------------------------
          Item                value                   Tolerance       Converged
          ---------------------------------------------------------------------
          Energy change      -0.0012898741            0.0000050000      NO
          RMS gradient        0.0008746600            0.0001000000      NO
          MAX gradient        0.0031718063            0.0003000000      NO
          RMS step            0.0824957911            0.0020000000      NO
          MAX step            0.1908462737            0.0040000000      NO
          -------------------------------------------------------------------------

The optimization has not yet converged - more geometry cycles are needed

Geometry step timings:
Preparation and reading OPT file:      0.004 s (19.128 %)
Hessian update/contruction      :      0.007 s (32.429 %)
Making the step                 :      0.004 s (16.330 %)
Storing new data                :      0.002 s ( 8.358 %)
Checking convergence            :      0.005 s (23.747 %)
Total time                      :      0.023 s

Time for energy+gradient        :    100.313 s
Time for complete geometry iter :    104.650 s




    ----------------------------------------------------------------------------
                                  WARNING !!!
       The optimization did not converge but reached the maximum number of
       optimization cycles.
       Please check your results very carefully.
    ----------------------------------------------------------------------------



--------------------------------
SUGGESTED CITATIONS FOR THIS RUN
--------------------------------

Below you find a list of papers that are relevant to this ORCA run
We neither can nor want to force you to cite these papers, but we appreciate if you do
You receive ORCA, which is the product of decades of hard work by many enthusiastic individuals, for free
The only thing we kindly ask in return is that you cite our papers,
We deeply appreciate it, if you show your appreciation for ORCA by not just citing the generic ORCA reference.

Please note that relegating all ORCA citations to the supporting information does *not* help us.
SI sections are not indexed - citations you put there will not count into any citation statistics
But we need these citations in order to attract the funding resources that allow us to do what we are doing

Therefore, if you are a happy ORCA user, please consider citing a few of the papers listed below in the main body of your paper

In addition to the list printed below, the program has created the file job.bibtex that contains the list in bibtex format
You can import this file easily into all common literature databanks and citation aid programs


List of essential papers. We consider these as the minimum necessary citations

  1. Neese,F.
     Software update: the ORCA program system, version 5.0
     WIRES Comput. Molec. Sci., 2022 12(1)e1606
     doi.org/10.1002/wcms.1606

List of papers to cite with high priority. The work reported in these papers was absolutely
necessary for this run to complete.
Our perspective: the developers of density functionals and basis sets usually get cited in chemistry papers
Good! But without the algorithms to do something with them, the functionals or basis sets would not do anything.
Hence, in our opinion, the algorithm design and method developments papers are equally worthy of getting cited

  1. Neese,F.
     An improvement of the resolution of the identity approximation for the formation of the Coulomb matrix
     J. Comp. Chem., 2003 24(14)1740-1747
     doi.org/10.1002/jcc.10318
  2. Neese,F.; Wennmohs,F.; Hansen,A.; Becker,U.
     Efficient, approximate and parallel Hartree-Fock and hybrid DFT calculations. A 'chain-of-spheres' algorithm for the Hartree-Fock exchange
     Chem. Phys., 2009 356(1-3)98-109
     doi.org/10.1016/j.chemphys.2008.10.036
  3. Bykov,D.; Petrenko,T.; Izsak,R.; Kossmann,S.; Becker,U.; Valeev,E.; Neese,F.
     Efficient implementation of the analytic second derivatives of Hartree-Fock and hybrid DFT energies: a detailed analysis of different approximations
     Molec. Phys., 2015 113 1961-1977
     doi.org/10.1080/00268976.2015.1025114
  4. Garcia-Rates,M.; Neese,F.
     Effect of the Solute Cavity on the Solvation Energy and its Derivatives within the Framework of the Gaussian Charge Scheme
     J. Comput. Chem., 2020 41 922-939
     doi.org/10.1002/jcc.26139
  5. Helmich-Paris,B.; de Souza,B.; Neese,F.; Izsák,R.
     An improved chain of spheres for exchange algorithm
     J. Chem. Phys., 2021 155 104109
     doi.org/doi: 10.1063/5.0058766.
  6. Neese,F.
     The SHARK Integral Generation and Digestion System
     J. Comp. Chem., 2022  1-16
     doi.org/10.1002/jcc.26942
  7. Grimme,S.; Antony,J.; Ehrlich,S.; Krieg,H.
     A consistent and accurate ab initio parametrization of density functional dispersion correction (DFT-D) for the 94 elements H-Pu
     J. Chem. Phys., 2010 132 154104
     doi.org/10.1063/1.3382344
  8. Grimme,S.; Ehrlich,S.; Goerigk,L.
     Effect of the damping function in dispersion corrected density functional theory
     J. Comput. Chem., 2011 32(7)1456-1465
     doi.org/10.1002/jcc.21759

List of suggested additional citations. These are papers that are important in the 'surrounding' of 
of this run, or papers that preceded the highly important papers. If you like your results we are grateful for a citation.

  1. Izsak,R.; Neese,F.
     An overlap fitted chain of spheres exchange method
     J. Chem. Phys., 2011 135 144105
     doi.org/10.1063/1.3646921
  2. Izsak,R.; Hansen,A.; Neese,F.
     The resolution of identity and chain of spheres approximations for the LPNO-CCSD singles Fock term
     Molec. Phys., 2012 110 2413-2417
     doi.org/10.1080/00268976.2012.687466
  3. Neese,F.
     The ORCA program system
     WIRES Comput. Molec. Sci., 2012 2(1)73-78
     doi.org/10.1002/wcms.81
  4. Izsak,R.; Neese,F.; Klopper,W.
     Robust fitting techniques in the chain of spheres approximation to the Fock exchange: The role of the complementary space
     J. Chem. Phys., 2013 139 
     doi.org/10.1063/1.4819264
  5. Neese,F.
     Software update: the ORCA program system, version 4.0
     WIRES Comput. Molec. Sci., 2018 8(1)1-6
     doi.org/10.1002/wcms.1327
  6. Neese,F.; Wennmohs,F.; Becker,U.; Riplinger,C.
     The ORCA quantum chemistry program package
     J. Chem. Phys., 2020 152 Art. No. L224108
     doi.org/10.1063/5.0004608

List of optional additional citations

  1. Neese,F.
     Approximate second-order SCF convergence for spin unrestricted wavefunctions
     Chem. Phys. Lett., 2000 325(1-3)93-98
     doi.org/10.1016/s0009-2614(00)00662-x

Timings for individual modules:

Sum of individual times          ...     6393.424 sec (= 106.557 min)
Startup calculation              ...      432.909 sec (=   7.215 min)   6.8 %
SCF iterations                   ...     3802.166 sec (=  63.369 min)  59.5 %
SCF Gradient evaluation          ...     2156.109 sec (=  35.935 min)  33.7 %
Geometry relaxation              ...        2.241 sec (=   0.037 min)   0.0 %
                             ****ORCA TERMINATED NORMALLY****
TOTAL RUN TIME: 0 days 4 hours 34 minutes 53 seconds 164 msec
