
                                 *****************
                                 * O   R   C   A *
                                 *****************

                                            #,                                       
                                            ###                                      
                                            ####                                     
                                            #####                                    
                                            ######                                   
                                           ########,                                 
                                     ,,################,,,,,                         
                               ,,#################################,,                 
                          ,,##########################################,,             
                       ,#########################################, ''#####,          
                    ,#############################################,,   '####,        
                  ,##################################################,,,,####,       
                ,###########''''           ''''###############################       
              ,#####''   ,,,,##########,,,,          '''####'''          '####       
            ,##' ,,,,###########################,,,                        '##       
           ' ,,###''''                  '''############,,,                           
         ,,##''                                '''############,,,,        ,,,,,,###''
      ,#''                                            '''#######################'''  
     '                                                          ''''####''''         
             ,#######,   #######,   ,#######,      ##                                
            ,#'     '#,  ##    ##  ,#'     '#,    #''#        ,####,   ,####,        
            ##       ##  ##   ,#'  ##            #'  '#       #'       #'  '#        
            ##       ##  #######   ##           ,######,      #####,   #    #        
            '#,     ,#'  ##    ##  '#,     ,#' ,#      #,     #,   #   #,  ,#        
             '#######'   ##     ##  '#######'  #'      '#     '####' # '####'        



                #########################################################
                #                        -***-                          #
                #          Department of theory and spectroscopy        #
                #                                                       #
                #                      Frank Neese                      #
                #                                                       #
                #     Directorship, Architecture, Infrastructure        #
                #                    SHARK, DRIVERS                     #
                #        Core code/Algorithms in most modules           #
                #                                                       #
                #        Max Planck Institute fuer Kohlenforschung      #
                #                Kaiser Wilhelm Platz 1                 #
                #                 D-45470 Muelheim/Ruhr                 #
                #                      Germany                          #
                #                                                       #
                #                  All rights reserved                  #
                #                        -***-                          #
                #########################################################


                         Program Version 6.0.1  -  RELEASE   -


 With contributions from (in alphabetic order):
[Max-Planck-Institut fuer Kohlenforschung]                               
  Daniel Aravena         : Magnetic Suceptibility                        
  Michael Atanasov       : Ab Initio Ligand Field Theory (pilot matlab implementation)
  Alexander A. Auer      : GIAO ZORA, VPT2 properties, NMR spectrum      
  Ute Becker             : All parallelization in ORCA, NUMFREQ, NUMCALC 
  Giovanni Bistoni       : ED, misc. LED, open-shell LED, HFLD           
  Martin Brehm           : Molecular dynamics                            
  Dmytro Bykov           : pre 5.0 version of the SCF Hessian            
  Marcos Casanova-Páez   : Triplet and SCS-CIS(D). UHF-(DLPNO)-IP/EA/STEOM-CCSD. UHF-CVS-IP/STEOM-CCSD   
  Vijay G. Chilkuri      : MRCI spin determinant printing, contributions to CSF-ICE 
  Pauline Colinet        : FMM embedding                                 
  Dipayan Datta          : RHF DLPNO-CCSD density                        
  Achintya Kumar Dutta   : EOM-CC, STEOM-CC                              
  Nicolas Foglia         : Exact transition moments, OPA infrastructure, MCD improvements    
  Dmitry Ganyushin       : Spin-Orbit,Spin-Spin,Magnetic field MRCI      
  Miquel Garcia-Rates    : C-PCM and meta-GGA Hessian, CCSD/C-PCM, Gaussian charge scheme 
  Tiago L. C. Gouveia    : GS-ROHF, GS-ROCIS                             
  Yang Guo               : DLPNO-NEVPT2, F12-NEVPT2, CIM, IAO-localization        
  Andreas Hansen         : Spin unrestricted coupled pair/coupled cluster methods 
  Ingolf Harden          : AUTO-CI MPn and infrastructure                
  Benjamin Helmich-Paris : MC-RPA, TRAH-(SCF,CASSCF), AVAS, COSX integrals, SCF dyn. polar. 
  Lee Huntington         : MR-EOM, pCC                                   
  Robert Izsak           : Overlap fitted RIJCOSX, COSX-SCS-MP3, EOM     
  Riya Kayal             : Wick's Theorem for AUTO-CI, AUTO-CI UHF-CCSDT 
  Emily Kempfer          : AUTO-CI, RHF CISDT and CCSDT                  
  Christian Kollmar      : KDIIS, OOCD, Brueckner-CCSD(T), CCSD density, CASPT2, CASPT2-K, improved NEVPT2 
  Axel Koslowski         : Symmetry handling                             
  Simone Kossmann        : meta-GGA functionals, TD-DFT gradient, OOMP2, (MP2 Hessian; deprecated post 5.0) 
  Lucas Lang             : DCDCAS                                        
  Marvin Lechner         : AUTO-CI (C++ implementation), FIC-MRCC        
  Spencer Leger          : CASSCF response                               
  Dagmar Lenk            : GEPOL surface, SMD, ORCA-2-JSON               
  Dimitrios Liakos       : Extrapolation schemes; Compound Job, initial MDCI parallelization 
  Dimitrios Manganas     : Further ROCIS development; embedding schemes. LFT, Crystal Embedding 
  Dimitrios Pantazis     : SARC Basis sets                               
  Anastasios Papadopoulos: AUTO-CI, single reference methods and gradients 
  Taras Petrenko         : pre 6.0 DFT Hessian and TD-DFT gradient, (ASA, deprecated), ECA, 1-Electron XAS/XES, NRVS 
  Peter Pinski           : DLPNO-MP2, DLPNO-MP2 Gradient                 
  Christoph Reimann      : Effective Core Potentials                     
  Marius Retegan         : Local ZFS, SOC                                
  Christoph Riplinger    : Optimizer, TS searches, QM/MM, DLPNO-CCSD(T), (RO)-DLPNO pert. Triples 
  Michael Roemelt        : Original ROCIS implementation                 
  Masaaki Saitow         : Open-shell DLPNO-CCSD energy and density      
  Barbara Sandhoefer     : DKH picture change effects                    
  Kantharuban Sivalingam : CASSCF convergence/infrastructure, NEVPT2 and variants, FIC-MRCI 
  Bernardo de Souza      : ESD, SOC TD-DFT                               
  Georgi L. Stoychev     : AutoAux, RI-MP2 NMR, DLPNO-MP2 response, X2C  
  Van Anh Tran           : RI-MP2 g-tensors                              
  Willem Van den Heuvel  : Paramagnetic NMR                              
  Zikuan Wang            : NOTCH, Electric field optimization            
  Frank Wennmohs         : Technical directorship and infrastructure     
  Hang Xu                : AUTO-CI-Response properties                   
                                                                         
[FACCTs GmbH]                                                            
  Markus Bursch, Miquel Garcia-Rates, Christoph Riplinger, Bernardo de Souza, Georgi L. Stoychev 
                                                                 
  APM, Basis sets (HGBS, AHGBS, def-TZVP (Ac-Lr), def2-XVPD (La-Lu)), CI-OPT, improved COSX, DLPNO-Multilevel,           
  DOCKER, DRACO, updates on ESD, GOAT, IRC, LR-CPCM, MBIS, meta-GGA TD-DFT gradient, ML-optimized integration grids, 
  MM, NACMEs, nearIR, NEB, NEB-TS, NL-DFT gradient (VV10), 2- and 3-layer-ONIOM, interface openCOSMO-RS, QMMM,   
  Crystal-QMMM, SF, symmetry and pop. for TD-DFT, r2SCAN hybrids, SOLVATOR                                   
                                                                         
[Other institutions]                                                     
  V. Asgeirsson          : NEB                                           
  Christoph Bannwarth    : sTDA-DFT, sTD-DFT, PBEh-3c, B97-3c, D3        
  Sebastian Ehlert       : rSCAN, r2SCAN, r2SCAN-3c, D4, dhf basis sets  
  Marvin Friede          : D4 for Fr, Ra, Ac-Lr                          
  Lars Goerigk           : TD-DFT with DH, B97 family of functionals     
  Stefan Grimme          : VdW corrections, initial TS optimization, DFT functionals, gCP, sTDA/sTD-DF 
  Waldemar Hujo          : DFT-NL                                        
  H. Jonsson             : NEB                                           
  Holger Kruse           : gCP                                           
  Marcel Mueller         : wB97X-3c, vDZP basis set                      
  Hagen Neugebauer       : wr2SCAN                                       
  Tobias Risthaus        : range-separated hybrid DFT                    
  Lukas Wittmann         : regularized MP2, r2SCAN double-hybrids, wr2SCAN        
                                                                         
We gratefully acknowledge several colleagues who have allowed us to      
interface, adapt or use parts of their codes:                            
  Ed Valeev, F. Pavosevic, A. Kumar             : LibInt (2-el integral package), F12 methods 
  Garnet Chan, S. Sharma, J. Yang, R. Olivares  : DMRG                   
  Ulf Ekstrom                                   : XCFun DFT Library      
  Mihaly Kallay                                 : mrcc  (arbitrary order and MRCC methods)
  Frank Weinhold                                : gennbo (NPA and NBO analysis)           
  Simon Mueller                                 : openCOSMO-RS                            
  Christopher J. Cramer and Donald G. Truhlar   : smd solvation model                     
  S Lehtola, MJT Oliveira, MAL Marques          : LibXC Library                           
  Liviu Ungur et al                             : ANISO software                          


 Your calculation uses the libint2 library for the computation of 2-el integrals
 For citations please refer to: http://libint.valeyev.net

 Your ORCA version has been built with support for libXC version: 6.2.2
 For citations please refer to: https://libxc.gitlab.io

 This ORCA versions uses:
   CBLAS   interface :  Fast vector & matrix operations
   LAPACKE interface :  Fast linear algebra routines
   SCALAPACK package :  Parallel linear algebra routines
   Shared memory     :  Shared parallel matrices
   BLAS/LAPACK       :  OpenBLAS 0.3.27  USE64BITINT DYNAMIC_ARCH NO_AFFINITY SkylakeX SINGLE_THREADED
        Core in use  :  SkylakeX
   Copyright (c) 2011-2014, The OpenBLAS Project


NOTE: MaxCore=3000 MB was set to SCF,MP2,MDCI,CIPSI,MRCI and CIS
      => If you want to overwrite this, your respective input block should be placed after the MaxCore statement


***************************************
The coordinates will be read from file: start.xyz
***************************************


Your calculation utilizes the atom-pairwise dispersion correction
with the Becke-Johnson damping scheme (D3BJ)


================================================================================

----- Orbital basis set information -----
Your calculation utilizes the basis: def2-SVP
   F. Weigend and R. Ahlrichs, Phys. Chem. Chem. Phys. 7, 3297 (2005).

----- AuxJ basis set information -----
Your calculation utilizes the auxiliary basis: def2/J
   F. Weigend, Phys. Chem. Chem. Phys. 8, 1057 (2006).

================================================================================
                                        WARNINGS
                       Please study these warnings very carefully!
================================================================================


WARNING: Geometry Optimization
  ===> : Switching off AutoStart
         For restart on a previous wavefunction, please use MOREAD

WARNING: The chosen methods will break translational/rotational symmetry
  ===> : Will NOT project out the translational and rotational degrees of freedom
         of the Hessians, in case Hessians are calculated!

WARNING: The chosen methods will break translational symmetry
  ===> : Will NOT exploit translational invariance of the Hessians,
         in case Hessians are calculated!

WARNING: The chosen methods will break translational symmetry
  ===> : Will NOT make the numerical gradients translationally invariant,
         in case numerical gradients are calculated!

================================================================================
                                       INPUT FILE
================================================================================
NAME = job.inp
|  1> ! B3LYP D3BJ def2-SVP def2/J RIJCOSX CPCM TightSCF Opt
|  2> %maxcore 3000
|  3> %pal nprocs 8 end
|  4> %cpcm epsilon 4.0 end
|  5> %scf MaxIter 300 end
|  6> %geom coordsys cartesian end
|  7> %pointcharges "design.pc"
|  8> * xyzfile -2 1 start.xyz
|  9> 
| 10>                          ****END OF INPUT****
================================================================================

                       *****************************
                       * Geometry Optimization Run *
                       *****************************

Geometry optimization settings:
Update method            Update   .... BFGS
Choice of coordinates    CoordSys .... Cartesian
Initial Hessian          InHess   .... Almloef's Model
Max. no of cycles        MaxIter  .... 72

Convergence Tolerances:
Energy Change            TolE     ....  5.0000e-06 Eh
Max. Gradient            TolMAXG  ....  3.0000e-04 Eh/bohr
RMS Gradient             TolRMSG  ....  1.0000e-04 Eh/bohr
Max. Displacement        TolMAXD  ....  4.0000e-03 bohr
RMS Displacement         TolRMSD  ....  2.0000e-03 bohr
Strict Convergence                .... False

------------------------------------------------------------------------------
                        ORCA OPTIMIZATION COORDINATE SETUP
------------------------------------------------------------------------------

The optimization will be done in Cartesian displacement coordinates
Initial hessian                         .... (Almloef)  done
Number of atoms                         .... 24
Number of degrees of freedom            .... 72
Constrained atoms:                      

         *************************************************************
         *                GEOMETRY OPTIMIZATION CYCLE   1            *
         *************************************************************
---------------------------------
CARTESIAN COORDINATES (ANGSTROEM)
---------------------------------
  C     60.092356   34.056984   56.354594
  H     60.757862   33.544930   57.062775
  H     60.607676   34.925793   55.921397
  C     58.844721   34.465867   57.095841
  C     58.158936   35.830179   56.839235
  O     58.893519   36.799815   56.528907
  O     56.917200   35.847731   56.992850
  O     58.307613   33.702214   57.875302
  C     57.548698   31.938147   55.699735
  H     56.940391   31.183730   56.203549
  C     58.878432   31.920015   55.800043
  H     59.399305   31.165241   56.389488
  C     59.744487   33.008977   55.219846
  C     59.028550   33.707589   54.087981
  H     59.670812   34.192743   53.346365
  C     57.695381   33.716804   53.971810
  H     57.195032   34.246401   53.154887
  C     56.810468   33.035130   54.981426
  H     56.513401   33.810335   55.714955
  O     55.640479   32.543634   54.338392
  H     55.032504   32.220885   55.020192
  C     61.077105   32.332661   54.739361
  O     61.765259   31.766738   55.625475
  O     61.336808   32.358221   53.517478

----------------------------
CARTESIAN COORDINATES (A.U.)
----------------------------
  NO LB      ZA    FRAG     MASS         X           Y           Z
   0 C     6.0000    0    12.011  113.558096   64.358373  106.494749
   1 H     1.0000    0     1.008  114.815720   63.390731  107.833017
   2 H     1.0000    0     1.008  114.531909   66.000184  105.676125
   3 C     6.0000    0    12.011  111.200407   65.131050  107.895503
   4 C     6.0000    0    12.011  109.904461   67.709226  107.410588
   5 O     8.0000    0    15.999  111.292622   69.541572  106.824153
   6 O     8.0000    0    15.999  107.557920   67.742394  107.700878
   7 O     8.0000    0    15.999  110.185420   63.687955  109.368471
   8 C     6.0000    0    12.011  108.751279   60.354351  105.257245
   9 H     1.0000    0     1.008  107.601745   58.928710  106.209315
  10 C     6.0000    0    12.011  111.264112   60.320087  105.446800
  11 H     1.0000    0     1.008  112.248419   58.893770  106.560689
  12 C     6.0000    0    12.011  112.900718   62.377926  104.350386
  13 C     6.0000    0    12.011  111.547794   63.698112  102.211471
  14 H     1.0000    0     1.008  112.761493   64.614920  100.810020
  15 C     6.0000    0    12.011  109.028469   63.715526  101.991940
  16 H     1.0000    0     1.008  108.082947   64.716319  100.448179
  17 C     6.0000    0    12.011  107.356226   62.427348  103.899838
  18 H     1.0000    0     1.008  106.794851   63.892274  105.286007
  19 O     8.0000    0    15.999  105.145267   61.498556  102.684679
  20 H     1.0000    0     1.008  103.996361   60.888648  103.973095
  21 C     6.0000    0    12.011  115.419002   61.099874  103.442401
  22 O     8.0000    0    15.999  116.719424   60.030435  105.116914
  23 O     8.0000    0    15.999  115.909769   61.148176  101.133377

--------------------------------
INTERNAL COORDINATES (ANGSTROEM)
--------------------------------
 C      0   0   0     0.000000000000     0.00000000     0.00000000
 H      1   0   0     1.098461589548     0.00000000     0.00000000
 H      1   2   0     1.099110286409   109.78698018     0.00000000
 C      1   2   3     1.507721962407   108.10754442   238.10179376
 C      4   1   2     1.548384622374   121.59948918   140.32174127
 O      5   4   1     1.255432046735   117.53864483   327.72138291
 O      5   4   1     1.251324871736   115.56432106   149.08715400
 O      4   1   2     1.216227922140   120.67977853   316.90378392
 C      8   4   1     2.901891819004    90.95760493   292.24654346
 H      9   8   4     1.092250412101   102.69242948   185.09396939
 C      9   8   4     1.333635248126    72.00809656    66.55081892
 H     11   9   8     1.090154980372   121.76798256    93.77119460
 C     11   9   8     1.507487333041   122.27966865   279.72805629
 C     13  11   9     1.510543906260   110.49891247   335.78526542
 H     14  13  11     1.094472097322   115.76072218   204.77637574
 C     14  13  11     1.338252666736   122.71019010    23.42569354
 H     16  14  13     1.094616504598   121.56601137   178.73505662
 C      9   8   4     1.504766777501    92.46532995   303.25113900
 H     18   9   8     1.107816044456   109.00241103   336.40747277
 O     18   9   8     1.422650801600   111.55365888   216.37505157
 H     20  18   9     0.968840419071   108.24531154    64.09239291
 C     13  11   9     1.569757911592   107.11519686   213.71427063
 O     22  13  11     1.256591735864   116.30152023   298.78179007
 O     22  13  11     1.249438684969   117.83841463   116.20229709

---------------------------
INTERNAL COORDINATES (A.U.)
---------------------------
 C      0   0   0     0.000000000000     0.00000000     0.00000000
 H      1   0   0     2.075791572878     0.00000000     0.00000000
 H      1   2   0     2.077017432289   109.78698018     0.00000000
 C      1   2   3     2.849181595047   108.10754442   238.10179376
 C      4   1   2     2.926022886262   121.59948918   140.32174127
 O      5   4   1     2.372422748077   117.53864483   327.72138291
 O      5   4   1     2.364661312145   115.56432106   149.08715400
 O      4   1   2     2.298337689273   120.67977853   316.90378392
 C      8   4   1     5.483780808184    90.95760493   292.24654346
 H      9   8   4     2.064054148533   102.69242948   185.09396939
 C      9   8   4     2.520205381502    72.00809656    66.55081892
 H     11   9   8     2.060094356433   121.76798256    93.77119460
 C     11   9   8     2.848738209802   122.27966865   279.72805629
 C     13  11   9     2.854514296094   110.49891247   335.78526542
 H     14  13  11     2.068252525157   115.76072218   204.77637574
 C     14  13  11     2.528931038122   122.71019010    23.42569354
 H     16  14  13     2.068525415361   121.56601137   178.73505662
 C      9   8   4     2.843597104900    92.46532995   303.25113900
 H     18   9   8     2.093468930787   109.00241103   336.40747277
 O     18   9   8     2.688420399227   111.55365888   216.37505157
 H     20  18   9     1.830843059518   108.24531154    64.09239291
 C     13  11   9     2.966412549465   107.11519686   213.71427063
 O     22  13  11     2.374614242931   116.30152023   298.78179007
 O     22  13  11     2.361096935719   117.83841463   116.20229709

---------------------
BASIS SET INFORMATION
---------------------
There are 3 groups of distinct atoms

 Group   1 Type C   : 7s4p1d contracted to 3s2p1d pattern {511/31/1}
 Group   2 Type H   : 4s1p contracted to 2s1p pattern {31/1}
 Group   3 Type O   : 7s4p1d contracted to 3s2p1d pattern {511/31/1}

Atom   0C    basis set group =>   1
Atom   1H    basis set group =>   2
Atom   2H    basis set group =>   2
Atom   3C    basis set group =>   1
Atom   4C    basis set group =>   1
Atom   5O    basis set group =>   3
Atom   6O    basis set group =>   3
Atom   7O    basis set group =>   3
Atom   8C    basis set group =>   1
Atom   9H    basis set group =>   2
Atom  10C    basis set group =>   1
Atom  11H    basis set group =>   2
Atom  12C    basis set group =>   1
Atom  13C    basis set group =>   1
Atom  14H    basis set group =>   2
Atom  15C    basis set group =>   1
Atom  16H    basis set group =>   2
Atom  17C    basis set group =>   1
Atom  18H    basis set group =>   2
Atom  19O    basis set group =>   3
Atom  20H    basis set group =>   2
Atom  21C    basis set group =>   1
Atom  22O    basis set group =>   3
Atom  23O    basis set group =>   3
---------------------------------
AUXILIARY/J BASIS SET INFORMATION
---------------------------------
There are 3 groups of distinct atoms

 Group   1 Type C   : 12s5p4d2f1g contracted to 6s4p3d1f1g pattern {711111/2111/211/2/1}
 Group   2 Type H   : 5s2p1d contracted to 3s1p1d pattern {311/2/1}
 Group   3 Type O   : 12s5p4d2f1g contracted to 6s4p3d1f1g pattern {711111/2111/211/2/1}

Atom   0C    basis set group =>   1
Atom   1H    basis set group =>   2
Atom   2H    basis set group =>   2
Atom   3C    basis set group =>   1
Atom   4C    basis set group =>   1
Atom   5O    basis set group =>   3
Atom   6O    basis set group =>   3
Atom   7O    basis set group =>   3
Atom   8C    basis set group =>   1
Atom   9H    basis set group =>   2
Atom  10C    basis set group =>   1
Atom  11H    basis set group =>   2
Atom  12C    basis set group =>   1
Atom  13C    basis set group =>   1
Atom  14H    basis set group =>   2
Atom  15C    basis set group =>   1
Atom  16H    basis set group =>   2
Atom  17C    basis set group =>   1
Atom  18H    basis set group =>   2
Atom  19O    basis set group =>   3
Atom  20H    basis set group =>   2
Atom  21C    basis set group =>   1
Atom  22O    basis set group =>   3
Atom  23O    basis set group =>   3


           ************************************************************
           *        Program running with 8 parallel MPI-processes     *
           *              working on a common directory               *
           ************************************************************
------------------------------------------------------------------------------
                             ORCA STARTUP CALCULATIONS
                           -- RI-GTO INTEGRALS CHOSEN --
------------------------------------------------------------------------------
------------------------------------------------------------------------------
                   ___                                                        
                  /   \      - P O W E R E D   B Y -                         
                 /     \                                                     
                 |  |  |   _    _      __       _____    __    __             
                 |  |  |  | |  | |    /  \     |  _  \  |  |  /  |          
                  \  \/   | |  | |   /    \    | | | |  |  | /  /          
                 / \  \   | |__| |  /  /\  \   | |_| |  |  |/  /          
                |  |  |   |  __  | /  /__\  \  |    /   |      \           
                |  |  |   | |  | | |   __   |  |    \   |  |\   \          
                \     /   | |  | | |  |  |  |  | |\  \  |  | \   \       
                 \___/    |_|  |_| |__|  |__|  |_| \__\ |__|  \__/        
                                                                              
                      - O R C A' S   B I G   F R I E N D -                    
                                      &                                       
                       - I N T E G R A L  F E E D E R -                       
                                                                              
 v1 FN, 2020, v2 2021, v3 2022-2024                                           
------------------------------------------------------------------------------


----------------------
SHARK INTEGRAL PACKAGE
----------------------

Number of atoms                             ...     24
Number of basis functions                   ...    264
Number of shells                            ...    120
Maximum angular momentum                    ...      2
Integral batch strategy                     ... SHARK/LIBINT Hybrid
RI-J (if used) integral strategy            ... SPLIT-RIJ (Revised 2003 algorithm where possible)
Printlevel                                  ...      1
Contraction scheme used                     ... SEGMENTED contraction
Prescreening option                         ... SCHWARTZ
   Thresh                                   ... 2.500e-11
   Tcut                                     ... 2.500e-12
   Tpresel                                  ... 2.500e-12 
Coulomb Range Separation                    ... NOT USED
Exchange Range Separation                   ... NOT USED
Multipole approximations                    ... NOT USED
Finite Nucleus Model                        ... NOT USED
CABS basis                                  ... NOT available
Auxiliary Coulomb fitting basis             ... AVAILABLE
   # of basis functions in Aux-J            ...    872
   # of shells in Aux-J                     ...    280
   Maximum angular momentum in Aux-J        ...      4
Auxiliary J/K fitting basis                 ... NOT available
Auxiliary Correlation fitting basis         ... NOT available
Auxiliary 'external' fitting basis          ... NOT available

Checking pre-screening integrals            ... done (  0.0 sec) Dimension = 120
Check shell pair data                       ... done (  0.0 sec)
Shell pair information
Shell pair cut-off parameter TPreSel        ...   2.5e-12
Total number of shell pairs                 ...      7260
Shell pairs after pre-screening             ...      6310
Total number of primitive shell pairs       ...     27260
Primitive shell pairs kept                  ...     15842
          la=0 lb=0:   1790 shell pairs
          la=1 lb=0:   2268 shell pairs
          la=1 lb=1:    755 shell pairs
          la=2 lb=0:    837 shell pairs
          la=2 lb=1:    552 shell pairs
          la=2 lb=2:    108 shell pairs

Reading point charge file                   ... ok (3 point charges)
Calculating one electron integrals          ... done (  0.0 sec)
Calculating RI/J V-Matrix + Cholesky decomp.... done (  0.6 sec)
Calculating Nuclear repulsion               ... (+Point charges) done (  0.0 sec) ENN=   1109.197896086045 Eh

Diagonalization of the overlap matrix:
Smallest eigenvalue                        ... 3.936e-04
Time for diagonalization                   ...    0.016 sec
Threshold for overlap eigenvalues          ... 1.000e-07
Number of eigenvalues below threshold      ... 0
Time for construction of square roots      ...    0.027 sec
Total time needed                          ...    0.082 sec

-------------------
DFT GRID GENERATION
-------------------

General Integration Accuracy     IntAcc      ... 4.388
Radial Grid Type                 RadialGrid  ... OptM3 with GC (2021)
Angular Grid (max. ang.)         AngularGrid ... 4 (Lebedev-302)
Angular grid pruning method      GridPruning ... 4 (adaptive)
Weight generation scheme         WeightScheme... mBecke (2022)
Basis function cutoff            BFCut       ... 1.0000e-11
Integration weight cutoff        WCut        ... 1.0000e-14
Partially contracted basis set               ... off
Rotationally invariant grid construction     ... off
Angular grids for H and He will be reduced by one unit

Total number of grid points                  ...   121513
Total number of batches                      ...     1913
Average number of points per batch           ...       63
Average number of grid points per atom       ...     5063

--------------------
COSX GRID GENERATION
--------------------

GRIDX 1
-------
General Integration Accuracy     IntAcc      ... 3.816
Radial Grid Type                 RadialGrid  ... OptM3 with GC (2021)
Angular Grid (max. ang.)         AngularGrid ... 1 (Lebedev-50)
Angular grid pruning method      GridPruning ... 4 (adaptive)
Weight generation scheme         WeightScheme... mBecke (2022)
Basis function cutoff            BFCut       ... 1.0000e-11
Integration weight cutoff        WCut        ... 1.0000e-14
Partially contracted basis set               ... on
Rotationally invariant grid construction     ... off
Angular grids for H and He will be reduced by one unit

Total number of grid points                  ...    15380
Total number of batches                      ...      133
Average number of points per batch           ...      115
Average number of grid points per atom       ...      641
UseSFitting                                  ... on

GRIDX 2
-------
General Integration Accuracy     IntAcc      ... 4.020
Radial Grid Type                 RadialGrid  ... OptM3 with GC (2021)
Angular Grid (max. ang.)         AngularGrid ... 2 (Lebedev-110)
Angular grid pruning method      GridPruning ... 4 (adaptive)
Weight generation scheme         WeightScheme... mBecke (2022)
Basis function cutoff            BFCut       ... 1.0000e-11
Integration weight cutoff        WCut        ... 1.0000e-14
Partially contracted basis set               ... on
Rotationally invariant grid construction     ... off
Angular grids for H and He will be reduced by one unit

Total number of grid points                  ...    34374
Total number of batches                      ...      283
Average number of points per batch           ...      121
Average number of grid points per atom       ...     1432
UseSFitting                                  ... on

GRIDX 3
-------
General Integration Accuracy     IntAcc      ... 4.338
Radial Grid Type                 RadialGrid  ... OptM3 with GC (2021)
Angular Grid (max. ang.)         AngularGrid ... 3 (Lebedev-194)
Angular grid pruning method      GridPruning ... 4 (adaptive)
Weight generation scheme         WeightScheme... mBecke (2022)
Basis function cutoff            BFCut       ... 1.0000e-11
Integration weight cutoff        WCut        ... 1.0000e-14
Partially contracted basis set               ... on
Rotationally invariant grid construction     ... off
Angular grids for H and He will be reduced by one unit

Total number of grid points                  ...    75498
Total number of batches                      ...      602
Average number of points per batch           ...      125
Average number of grid points per atom       ...     3146
UseSFitting                                  ... on
Initializing property integral containers    ... done (  0.1 sec)

SHARK setup successfully completed in   6.7 seconds

Maximum memory used throughout the entire STARTUP-calculation: 34.0 MB


           ************************************************************
           *        Program running with 8 parallel MPI-processes     *
           *              working on a common directory               *
           ************************************************************
-------------------------------------------------------------------------------
                                 ORCA GUESS
                   Start orbitals & Density for SCF / CASSCF
-------------------------------------------------------------------------------

------------
SCF SETTINGS
------------
Hamiltonian:
 Density Functional     Method          .... DFT(GTOs)
 Exchange Functional    Exchange        .... B88
   X-Alpha parameter    XAlpha          ....  0.666667
   Becke's b parameter  XBeta           ....  0.004200
 Correlation Functional Correlation     .... LYP
 LDA part of GGA corr.  LDAOpt          .... VWN-5
 Gradients option       PostSCFGGA      .... off
 Hybrid DFT is turned on
   Fraction HF Exchange ScalHFX         ....  0.200000
   Scaling of DF-GGA-X  ScalDFX         ....  0.720000
   Scaling of DF-GGA-C  ScalDFC         ....  0.810000
   Scaling of DF-LDA-C  ScalLDAC        ....  1.000000
   Perturbative correction              ....  0.000000
   NL short-range parameter             ....  4.800000
 RI-approximation to the Coulomb term is turned on
   Number of AuxJ basis functions       .... 872
   RIJ-COSX (HFX calculated with COS-X)).... on


General Settings:
 Integral files         IntName         .... job
 Hartree-Fock type      HFTyp           .... RHF
 Total Charge           Charge          ....   -2
 Multiplicity           Mult            ....    1
 Number of Electrons    NEL             ....  118
 Basis Dimension        Dim             ....  264
 Nuclear Repulsion      ENuc            ....   1109.1978960860 Eh

Convergence Acceleration:
 AO-DIIS                CNVDIIS         .... on
   Start iteration      DIISMaxIt       ....    12
   Startup error        DIISStart       ....  0.200000
   # of expansion vecs  DIISMaxEq       ....     5
   Bias factor          DIISBfac        ....   1.050
   Max. coefficient     DIISMaxC        ....  10.000
 MO-DIIS                CNVKDIIS        .... off
 Trust-Rad. Augm. Hess. CNVTRAH         .... auto
   Auto Start mean grad. ratio tolernc. ....  1.125000
   Auto Start start iteration           ....    50
   Auto Start num. interpolation iter.  ....    10
   Max. Number of Micro iterations      ....    24
   Max. Number of Macro iterations      .... Maxiter - #DIIS iter
   Number of Davidson start vectors     ....     2
   Converg. threshold    (grad. norm)   ....   1.000e-05
   Grad. Scal. Fac. for Micro threshold ....   0.100
   Minimum threshold for Micro iter.    ....   1.000e-02
   NR start threshold (gradient norm)   ....   1.000e-04
   Initial trust radius                 ....   0.400
   Minimum AH scaling param. (alpha)    ....   1.000
   Maximum AH scaling param. (alpha)    .... 1000.000
   Quad. conv. algorithm                .... NR
   White noise on init. David. guess    .... on
   Maximum white noise                  ....   0.010
   Pseudo random numbers                .... off
   Inactive MOs                         .... canonical
   Orbital update algorithm             .... Taylor
   Preconditioner                       .... Diag
   Full preconditioner red. dimension   ....   250
 SOSCF                  CNVSOSCF        .... on
   Start iteration      SOSCFMaxIt      ....   150
   Startup grad/error   SOSCFStart      ....  0.003300
   Hessian update       SOSCFHessUp     .... L-BFGS
 Level Shifting         CNVShift        .... on
   Level shift para.    LevelShift      ....    0.2500
   Turn off err/grad.   ShiftErr        ....    0.0010
 Zerner damping         CNVZerner       .... off
 Static damping         CNVDamp         .... on
   Fraction old density DampFac         ....    0.7000
   Max. Damping (<1)    DampMax         ....    0.9800
   Min. Damping (>=0)   DampMin         ....    0.0000
   Turn off err/grad.   DampErr         ....    0.1000

SCF Procedure:
 Maximum # iterations   MaxIter         ....   300
 SCF integral mode      SCFMode         .... Direct
   Integral package                     .... SHARK and LIBINT hybrid scheme
 Reset frequency        DirectResetFreq ....    20
 Integral Threshold     Thresh          ....  2.500e-11 Eh
 Primitive CutOff       TCut            ....  2.500e-12 Eh

Convergence Tolerance:
 Convergence Check Mode ConvCheckMode   .... Total+1el-Energy
 Convergence forced     ConvForced      .... 0
 Energy Change          TolE            ....  1.000e-08 Eh
 1-El. energy change                    ....  1.000e-05 Eh
 Orbital Gradient       TolG            ....  1.000e-05
 Orbital Rotation angle TolX            ....  1.000e-05
 DIIS Error             TolErr          ....  5.000e-07

------------------------------
INITIAL GUESS: MODEL POTENTIAL
------------------------------
Loading Hartree-Fock densities                     ... done
Calculating cut-offs                               ... done
Initializing the effective Hamiltonian             ... done
Setting up the integral package (SHARK)            ... done
Starting the Coulomb interaction                   ... done (   0.2 sec)
Making the grid                                    ... done (   0.6 sec)
Mapping shells                                     ... done
Starting the XC term evaluation                    ... done (   0.1 sec)
  promolecular density results
     # of electrons  =    115.998698740
     EX              =   -102.846167807
     EC              =     -4.059360866
     EX+EC           =   -106.905528673
Transforming the Hamiltonian                       ... done (   0.0 sec)
Diagonalizing the Hamiltonian                      ... done (   0.0 sec)
Back transforming the eigenvectors                 ... done (   0.0 sec)
Now organizing SCF variables                       ... done
                      ------------------
                      INITIAL GUESS DONE (   1.1 sec)
                      ------------------
             **** ENERGY FILE WAS UPDATED (job.en.tmp) ****
Finished Guess after   1.9 sec
Maximum memory used throughout the entire GUESS-calculation: 20.0 MB


           ************************************************************
           *        Program running with 8 parallel MPI-processes     *
           *              working on a common directory               *
           ************************************************************

-------------------------------------------------------------------------------------------
                                      ORCA LEAN-SCF
                              memory conserving SCF solver
-------------------------------------------------------------------------------------------

--------------------
CPCM SOLVATION MODEL
--------------------
CPCM parameters:
  Epsilon                                         ...       4.0000
  Refrac                                          ...       1.3300
  Rsolv                                           ...       1.3000
  Surface type                                    ... GAUSSIAN VDW
  Discretization scheme                           ... Constant charge density
    Threshold for H atoms                         ...       5.0000 (charges/Ang^2)
    Threshold for non-H atoms                     ...       5.0000 (charges/Ang^2)
  Epsilon function type                           ...         CPCM
Solvent:                                          ... CUSTOM
Radii:
  Scheme                                          ... Element-dependent radii
  Radius for C  used is    3.8550 Bohr (=   2.0400 Ang.)
  Radius for H  used is    2.4944 Bohr (=   1.3200 Ang.)
  Radius for O  used is    3.4469 Bohr (=   1.8240 Ang.)
Calculating surface                               ...        done! (  0.0s)
Cavity surface points                             ...         2066
Cavity Volume                                     ...    1735.7773
Cavity Surface-area                               ...     851.7065
Calculating surface distance matrix               ...        done! (  0.0s)
Performing Cholesky decomposition & store         ...        done! (  0.7s)
Overall time for CPCM initialization              ...                 0.7s

----------------------------------------D-I-I-S--------------------------------------------
Iteration    Energy (Eh)           Delta-E    RMSDP     MaxDP     DIISErr   Damp  Time(sec)
-------------------------------------------------------------------------------------------
               ***  Starting incremental Fock matrix formation  ***
    1    -835.4333392114299386     0.00e+00  4.97e-03  2.10e-01  3.39e-01  0.700   4.4
    2    -835.8050086248151729    -3.72e-01  3.33e-03  1.69e-01  1.39e-01  0.700   3.0
                               ***Turning on AO-DIIS***
    3    -835.9287818551767941    -1.24e-01  1.76e-03  1.02e-01  9.31e-02  0.700   2.8
    4    -836.0090553619870661    -8.03e-02  4.03e-03  1.95e-01  6.48e-02  0.000   2.5
    5    -836.1929349407478185    -1.84e-01  8.91e-04  2.88e-02  1.84e-02  0.000   2.6
    6    -836.1963649661370255    -3.43e-03  3.79e-04  8.47e-03  4.14e-03  0.000   2.3
                              *** Initializing SOSCF ***
---------------------------------------S-O-S-C-F--------------------------------------
Iteration    Energy (Eh)           Delta-E    RMSDP     MaxDP     MaxGrad    Time(sec)
--------------------------------------------------------------------------------------
    7    -836.1968781320661037    -5.13e-04  1.75e-04  6.20e-03  3.20e-03     2.5
               *** Restarting incremental Fock matrix formation ***
    8    -836.1970414486722802    -1.63e-04  2.79e-04  6.13e-03  1.84e-03     4.3
    9    -836.1971767662214461    -1.35e-04  3.94e-04  8.17e-03  9.86e-04     3.4
   10    -836.1971573205648838     1.94e-05  1.71e-04  4.48e-03  1.83e-03     3.3
   11    -836.1972330638343465    -7.57e-05  6.77e-05  4.05e-03  2.74e-04     3.2
   12    -836.1972292304303664     3.83e-06  4.38e-05  2.25e-03  4.19e-04     3.4
   13    -836.1972373687044637    -8.14e-06  4.37e-06  1.30e-04  2.10e-05     3.1
   14    -836.1972373571716162     1.15e-08  2.07e-06  8.53e-05  4.07e-05     2.6
   15    -836.1972374005192705    -4.33e-08  1.30e-06  4.37e-05  1.08e-05     2.3
   16    -836.1972374038186899    -3.30e-09  7.27e-07  2.49e-05  9.86e-06     2.3
                 **** Energy Check signals convergence ****

               *****************************************************
               *                     SUCCESS                       *
               *           SCF CONVERGED AFTER  16 CYCLES          *
               *****************************************************

Recomputing exchange energy using gridx3       ... done (    5.334 sec)
Old exchange energy                            :    -20.888855674 Eh
New exchange energy                            :    -20.888845801 Eh
Exchange energy change after final integration :      0.000009872 Eh
Total energy after final integration           :   -836.197227531 Eh
             **** ENERGY FILE WAS UPDATED (job.en.tmp) ****

----------------
TOTAL SCF ENERGY
----------------

Total Energy       :       -836.19722753147846 Eh          -22754.08336 eV

Components:
Nuclear Repulsion  :       1109.19789608604515 Eh           30182.80922 eV
Electronic Energy  :      -1945.17422839374444 Eh          -52930.88171 eV
One Electron Energy:      -3391.35251122540012 Eh          -92283.39343 eV
Two Electron Energy:       1446.17828283165568 Eh           39352.51172 eV
CPCM Dielectric    :         -0.22090509611945 Eh              -6.01113 eV

Virial components:
Potential Energy   :      -1665.75407871489415 Eh          -45327.47289 eV
Kinetic Energy     :        829.55685118341569 Eh           22573.38953 eV
Virial Ratio       :          2.00800472726925

DFT components:
N(Alpha)           :       58.999977414665 electrons
N(Beta)            :       58.999977414665 electrons
N(Total)           :      117.999954829330 electrons
E(X)               :      -83.144738175971 Eh       
E(C)               :       -4.848033169465 Eh       
E(XC)              :      -87.992771345436 Eh       

CPCM Solvation Model Properties:
Surface-charge          :          1.98244628988500
Corrected charge        :          2.00000000000000
Outlying charge corr.   :          0.00001478511489 Eh               0.00040 eV
Free-energy (cav+disp)  :  This term is not implemented in the current solvation scheme

---------------
SCF CONVERGENCE
---------------

  Last Energy change         ...    3.2994e-09  Tolerance :   1.0000e-08
  Last MAX-Density change    ...    2.4940e-05  Tolerance :   1.0000e-07
  Last RMS-Density change    ...    7.2679e-07  Tolerance :   5.0000e-09
  Last DIIS Error            ...    3.2003e-03  Tolerance :   5.0000e-07
  Last Orbital Gradient      ...    9.8584e-06  Tolerance :   1.0000e-05
  Last Orbital Rotation      ...    1.4594e-05  Tolerance :   1.0000e-05


----------------
ORBITAL ENERGIES
----------------

  NO   OCC          E(Eh)            E(eV) 
   0   2.0000     -19.019730      -517.5532 
   1   2.0000     -19.009564      -517.2765 
   2   2.0000     -18.953373      -515.7475 
   3   2.0000     -18.950870      -515.6794 
   4   2.0000     -18.856730      -513.1177 
   5   2.0000     -18.845343      -512.8078 
   6   2.0000     -10.144140      -276.0361 
   7   2.0000     -10.143102      -276.0078 
   8   2.0000     -10.105174      -274.9758 
   9   2.0000     -10.053153      -273.5602 
  10   2.0000     -10.049504      -273.4609 
  11   2.0000     -10.049039      -273.4483 
  12   2.0000     -10.047831      -273.4154 
  13   2.0000     -10.044103      -273.3139 
  14   2.0000     -10.030944      -272.9559 
  15   2.0000     -10.029331      -272.9120 
  16   2.0000      -0.929494       -25.2928 
  17   2.0000      -0.887210       -24.1422 
  18   2.0000      -0.884251       -24.0617 
  19   2.0000      -0.799844       -21.7649 
  20   2.0000      -0.790697       -21.5160 
  21   2.0000      -0.697571       -18.9819 
  22   2.0000      -0.691537       -18.8177 
  23   2.0000      -0.622408       -16.9366 
  24   2.0000      -0.595878       -16.2147 
  25   2.0000      -0.556319       -15.1382 
  26   2.0000      -0.491819       -13.3831 
  27   2.0000      -0.461199       -12.5499 
  28   2.0000      -0.445338       -12.1183 
  29   2.0000      -0.392167       -10.6714 
  30   2.0000      -0.377752       -10.2792 
  31   2.0000      -0.361475        -9.8362 
  32   2.0000      -0.352306        -9.5867 
  33   2.0000      -0.329407        -8.9636 
  34   2.0000      -0.328613        -8.9420 
  35   2.0000      -0.317762        -8.6467 
  36   2.0000      -0.303815        -8.2672 
  37   2.0000      -0.283276        -7.7083 
  38   2.0000      -0.279338        -7.6012 
  39   2.0000      -0.273443        -7.4408 
  40   2.0000      -0.264420        -7.1952 
  41   2.0000      -0.257469        -7.0061 
  42   2.0000      -0.249057        -6.7772 
  43   2.0000      -0.231225        -6.2919 
  44   2.0000      -0.227246        -6.1837 
  45   2.0000      -0.197050        -5.3620 
  46   2.0000      -0.185159        -5.0384 
  47   2.0000      -0.178317        -4.8523 
  48   2.0000      -0.158126        -4.3028 
  49   2.0000      -0.155567        -4.2332 
  50   2.0000      -0.150793        -4.1033 
  51   2.0000      -0.131677        -3.5831 
  52   2.0000      -0.126448        -3.4408 
  53   2.0000      -0.112497        -3.0612 
  54   2.0000      -0.103842        -2.8257 
  55   2.0000      -0.098327        -2.6756 
  56   2.0000      -0.024693        -0.6719 
  57   2.0000      -0.021530        -0.5859 
  58   2.0000       0.000790         0.0215 
  59   0.0000       0.070291         1.9127 
  60   0.0000       0.143146         3.8952 
  61   0.0000       0.151491         4.1223 
  62   0.0000       0.176968         4.8155 
  63   0.0000       0.199098         5.4177 
  64   0.0000       0.210676         5.7328 
  65   0.0000       0.240308         6.5391 
  66   0.0000       0.242404         6.5962 
  67   0.0000       0.264169         7.1884 
  68   0.0000       0.266947         7.2640 
  69   0.0000       0.274401         7.4668 
*Only the first 10 virtual orbitals were printed.

                    ********************************
                    * MULLIKEN POPULATION ANALYSIS *
                    ********************************

-----------------------
MULLIKEN ATOMIC CHARGES
-----------------------
   0 C :    0.243138
   1 H :   -0.080405
   2 H :   -0.001038
   3 C :   -0.043000
   4 C :    0.056904
   5 O :   -0.406067
   6 O :   -0.444247
   7 O :   -0.393432
   8 C :   -0.128457
   9 H :   -0.101878
  10 C :    0.081714
  11 H :   -0.061680
  12 C :   -0.234812
  13 C :    0.073112
  14 H :    0.030062
  15 C :   -0.121650
  16 H :   -0.029935
  17 C :    0.329225
  18 H :   -0.054317
  19 O :   -0.343254
  20 H :    0.148581
  21 C :    0.146636
  22 O :   -0.446230
  23 O :   -0.218970
Sum of atomic charges:   -2.0000000

--------------------------------
MULLIKEN REDUCED ORBITAL CHARGES
--------------------------------
  0 C s       :     2.911761  s :     2.911761
      pz      :     0.938773  p :     2.812565
      px      :     0.937495
      py      :     0.936298
      dz2     :     0.003839  d :     0.032536
      dxz     :     0.009515
      dyz     :     0.007211
      dx2y2   :     0.004721
      dxy     :     0.007250

  1 H s       :     1.057223  s :     1.057223
      pz      :     0.007021  p :     0.023181
      px      :     0.008797
      py      :     0.007364

  2 H s       :     0.978467  s :     0.978467
      pz      :     0.005391  p :     0.022571
      px      :     0.006312
      py      :     0.010868

  3 C s       :     3.248392  s :     3.248392
      pz      :     0.836357  p :     2.706279
      px      :     0.948027
      py      :     0.921895
      dz2     :     0.016372  d :     0.088329
      dxz     :     0.016475
      dyz     :     0.016173
      dx2y2   :     0.022061
      dxy     :     0.017248

  4 C s       :     3.059363  s :     3.059363
      pz      :     0.874117  p :     2.745107
      px      :     0.919544
      py      :     0.951446
      dz2     :     0.009469  d :     0.138626
      dxz     :     0.028011
      dyz     :     0.010419
      dx2y2   :     0.043764
      dxy     :     0.046964

  5 O s       :     3.727750  s :     3.727750
      pz      :     1.495544  p :     4.664116
      px      :     1.635338
      py      :     1.533235
      dz2     :     0.001893  d :     0.014201
      dxz     :     0.001719
      dyz     :     0.002894
      dx2y2   :     0.002874
      dxy     :     0.004820

  6 O s       :     3.731065  s :     3.731065
      pz      :     1.569039  p :     4.699324
      px      :     1.350392
      py      :     1.779893
      dz2     :     0.001659  d :     0.013858
      dxz     :     0.004027
      dyz     :     0.000098
      dx2y2   :     0.005207
      dxy     :     0.002867

  7 O s       :     3.702955  s :     3.702955
      pz      :     1.453448  p :     4.674998
      px      :     1.642820
      py      :     1.578730
      dz2     :     0.003307  d :     0.015479
      dxz     :     0.002567
      dyz     :     0.004058
      dx2y2   :     0.002318
      dxy     :     0.003229

  8 C s       :     3.188000  s :     3.188000
      pz      :     1.028267  p :     2.907087
      px      :     0.945471
      py      :     0.933350
      dz2     :     0.003011  d :     0.033370
      dxz     :     0.007873
      dyz     :     0.004011
      dx2y2   :     0.006605
      dxy     :     0.011870

  9 H s       :     1.078849  s :     1.078849
      pz      :     0.006850  p :     0.023030
      px      :     0.006798
      py      :     0.009382

 10 C s       :     3.174293  s :     3.174293
      pz      :     0.888492  p :     2.708131
      px      :     0.906799
      py      :     0.912840
      dz2     :     0.002841  d :     0.035862
      dxz     :     0.009083
      dyz     :     0.004145
      dx2y2   :     0.009120
      dxy     :     0.010673

 11 H s       :     1.038493  s :     1.038493
      pz      :     0.006449  p :     0.023187
      px      :     0.007439
      py      :     0.009299

 12 C s       :     3.148630  s :     3.148630
      pz      :     0.979026  p :     3.038507
      px      :     1.112008
      py      :     0.947473
      dz2     :     0.007990  d :     0.047674
      dxz     :     0.009682
      dyz     :     0.011887
      dx2y2   :     0.007394
      dxy     :     0.010721

 13 C s       :     3.191512  s :     3.191512
      pz      :     0.914885  p :     2.700693
      px      :     0.882797
      py      :     0.903010
      dz2     :     0.005165  d :     0.034684
      dxz     :     0.010861
      dyz     :     0.003782
      dx2y2   :     0.005979
      dxy     :     0.008898

 14 H s       :     0.946205  s :     0.946205
      pz      :     0.009781  p :     0.023733
      px      :     0.008578
      py      :     0.005375

 15 C s       :     3.210505  s :     3.210505
      pz      :     0.917979  p :     2.878665
      px      :     0.943981
      py      :     1.016705
      dz2     :     0.003566  d :     0.032480
      dxz     :     0.011697
      dyz     :     0.003740
      dx2y2   :     0.005712
      dxy     :     0.007765

 16 H s       :     1.007165  s :     1.007165
      pz      :     0.010256  p :     0.022769
      px      :     0.005622
      py      :     0.006891

 17 C s       :     2.819891  s :     2.819891
      pz      :     0.971641  p :     2.778694
      px      :     0.876869
      py      :     0.930184
      dz2     :     0.008539  d :     0.072190
      dxz     :     0.017512
      dyz     :     0.015388
      dx2y2   :     0.014266
      dxy     :     0.016486

 18 H s       :     1.032406  s :     1.032406
      pz      :     0.008645  p :     0.021911
      px      :     0.003288
      py      :     0.009979

 19 O s       :     3.728235  s :     3.728235
      pz      :     1.509741  p :     4.602568
      px      :     1.321027
      py      :     1.771800
      dz2     :     0.002096  d :     0.012451
      dxz     :     0.005497
      dyz     :     0.002321
      dx2y2   :     0.001213
      dxy     :     0.001324

 20 H s       :     0.784133  s :     0.784133
      pz      :     0.023183  p :     0.067286
      px      :     0.023032
      py      :     0.021070

 21 C s       :     3.011602  s :     3.011602
      pz      :     0.904102  p :     2.700948
      px      :     0.904243
      py      :     0.892603
      dz2     :     0.041043  d :     0.140813
      dxz     :     0.042395
      dyz     :     0.035887
      dx2y2   :     0.010133
      dxy     :     0.011355

 22 O s       :     3.738860  s :     3.738860
      pz      :     1.559746  p :     4.693367
      px      :     1.594439
      py      :     1.539182
      dz2     :     0.002242  d :     0.014003
      dxz     :     0.003921
      dyz     :     0.003102
      dx2y2   :     0.002334
      dxy     :     0.002404

 23 O s       :     3.762245  s :     3.762245
      pz      :     1.311733  p :     4.439998
      px      :     1.606025
      py      :     1.522240
      dz2     :     0.007309  d :     0.016726
      dxz     :     0.004336
      dyz     :     0.004384
      dx2y2   :     0.000327
      dxy     :     0.000372



                     *******************************
                     * LOEWDIN POPULATION ANALYSIS *
                     *******************************

----------------------
LOEWDIN ATOMIC CHARGES
----------------------
   0 C :   -0.035582
   1 H :   -0.001869
   2 H :    0.028279
   3 C :    0.029939
   4 C :   -0.085790
   5 O :   -0.368869
   6 O :   -0.402483
   7 O :   -0.301779
   8 C :   -0.099983
   9 H :   -0.016464
  10 C :    0.013142
  11 H :    0.003644
  12 C :   -0.071790
  13 C :    0.022247
  14 H :    0.043433
  15 C :   -0.083150
  16 H :    0.016186
  17 C :    0.044878
  18 H :   -0.012323
  19 O :   -0.164028
  20 H :    0.063519
  21 C :   -0.018966
  22 O :   -0.394443
  23 O :   -0.207750

-------------------------------
LOEWDIN REDUCED ORBITAL CHARGES
-------------------------------
  0 C s       :     2.856500  s :     2.856500
      pz      :     1.027990  p :     3.092691
      px      :     1.023624
      py      :     1.041077
      dz2     :     0.008718  d :     0.086391
      dxz     :     0.025745
      dyz     :     0.020350
      dx2y2   :     0.012441
      dxy     :     0.019138

  1 H s       :     0.929851  s :     0.929851
      pz      :     0.023395  p :     0.072018
      px      :     0.026480
      py      :     0.022144

  2 H s       :     0.903233  s :     0.903233
      pz      :     0.017622  p :     0.068488
      px      :     0.018448
      py      :     0.032417

  3 C s       :     2.932759  s :     2.932759
      pz      :     0.861380  p :     2.829274
      px      :     0.974335
      py      :     0.993560
      dz2     :     0.032983  d :     0.208028
      dxz     :     0.040992
      dyz     :     0.039194
      dx2y2   :     0.054583
      dxy     :     0.040276

  4 C s       :     2.874849  s :     2.874849
      pz      :     0.852603  p :     2.885588
      px      :     1.019811
      py      :     1.013174
      dz2     :     0.022296  d :     0.325353
      dxz     :     0.058827
      dyz     :     0.022375
      dx2y2   :     0.106852
      dxy     :     0.115002

  5 O s       :     3.573021  s :     3.573021
      pz      :     1.500926  p :     4.770543
      px      :     1.679313
      py      :     1.590304
      dz2     :     0.003448  d :     0.025305
      dxz     :     0.002675
      dyz     :     0.004428
      dx2y2   :     0.005032
      dxy     :     0.009723

  6 O s       :     3.565591  s :     3.565591
      pz      :     1.561693  p :     4.811754
      px      :     1.469622
      py      :     1.780439
      dz2     :     0.003607  d :     0.025137
      dxz     :     0.005514
      dyz     :     0.000152
      dx2y2   :     0.011050
      dxy     :     0.004815

  7 O s       :     3.535187  s :     3.535187
      pz      :     1.470820  p :     4.738910
      px      :     1.653832
      py      :     1.614257
      dz2     :     0.004118  d :     0.027683
      dxz     :     0.005290
      dyz     :     0.008105
      dx2y2   :     0.004699
      dxy     :     0.005471

  8 C s       :     2.878474  s :     2.878474
      pz      :     1.035437  p :     3.132207
      px      :     1.081290
      py      :     1.015481
      dz2     :     0.007009  d :     0.089302
      dxz     :     0.019817
      dyz     :     0.009321
      dx2y2   :     0.020333
      dxy     :     0.032822

  9 H s       :     0.947707  s :     0.947707
      pz      :     0.021916  p :     0.068757
      px      :     0.019024
      py      :     0.027817

 10 C s       :     2.875953  s :     2.875953
      pz      :     0.946867  p :     3.017757
      px      :     1.070485
      py      :     1.000405
      dz2     :     0.007319  d :     0.093148
      dxz     :     0.021814
      dyz     :     0.009442
      dx2y2   :     0.025765
      dxy     :     0.028808

 11 H s       :     0.925152  s :     0.925152
      pz      :     0.021491  p :     0.071204
      px      :     0.021679
      py      :     0.028034

 12 C s       :     2.878331  s :     2.878331
      pz      :     0.998189  p :     3.079225
      px      :     1.082824
      py      :     0.998213
      dz2     :     0.016754  d :     0.114234
      dxz     :     0.023148
      dyz     :     0.031298
      dx2y2   :     0.015512
      dxy     :     0.027522

 13 C s       :     2.879059  s :     2.879059
      pz      :     0.992351  p :     3.009103
      px      :     1.073565
      py      :     0.943187
      dz2     :     0.013804  d :     0.089591
      dxz     :     0.029466
      dyz     :     0.008688
      dx2y2   :     0.017076
      dxy     :     0.020556

 14 H s       :     0.884617  s :     0.884617
      pz      :     0.029324  p :     0.071950
      px      :     0.024842
      py      :     0.017783

 15 C s       :     2.876271  s :     2.876271
      pz      :     1.015041  p :     3.120992
      px      :     1.074432
      py      :     1.031519
      dz2     :     0.009943  d :     0.085887
      dxz     :     0.031872
      dyz     :     0.008606
      dx2y2   :     0.016059
      dxy     :     0.019406

 16 H s       :     0.914934  s :     0.914934
      pz      :     0.030700  p :     0.068879
      px      :     0.016037
      py      :     0.022143

 17 C s       :     2.835366  s :     2.835366
      pz      :     1.029591  p :     2.956402
      px      :     0.900688
      py      :     1.026123
      dz2     :     0.015638  d :     0.163353
      dxz     :     0.041118
      dyz     :     0.039758
      dx2y2   :     0.028914
      dxy     :     0.037925

 18 H s       :     0.940283  s :     0.940283
      pz      :     0.027486  p :     0.072040
      px      :     0.012804
      py      :     0.031751

 19 O s       :     3.453992  s :     3.453992
      pz      :     1.577033  p :     4.686172
      px      :     1.354420
      py      :     1.754719
      dz2     :     0.002849  d :     0.023864
      dxz     :     0.011382
      dyz     :     0.003593
      dx2y2   :     0.002764
      dxy     :     0.003276

 20 H s       :     0.757155  s :     0.757155
      pz      :     0.068063  p :     0.179326
      px      :     0.056211
      py      :     0.055052

 21 C s       :     2.847960  s :     2.847960
      pz      :     1.023014  p :     2.850712
      px      :     0.935918
      py      :     0.891780
      dz2     :     0.099964  d :     0.320294
      dxz     :     0.095808
      dyz     :     0.075887
      dx2y2   :     0.022296
      dxy     :     0.026340

 22 O s       :     3.569329  s :     3.569329
      pz      :     1.620058  p :     4.800000
      px      :     1.619184
      py      :     1.560757
      dz2     :     0.003925  d :     0.025115
      dxz     :     0.007797
      dyz     :     0.006000
      dx2y2   :     0.002979
      dxy     :     0.004413

 23 O s       :     3.581920  s :     3.581920
      pz      :     1.441846  p :     4.596865
      px      :     1.624550
      py      :     1.530469
      dz2     :     0.015439  d :     0.028965
      dxz     :     0.007009
      dyz     :     0.005722
      dx2y2   :     0.000400
      dxy     :     0.000396



                      *****************************
                      * MAYER POPULATION ANALYSIS *
                      *****************************

  NA   - Mulliken gross atomic population
  ZA   - Total nuclear charge
  QA   - Mulliken gross atomic charge
  VA   - Mayer's total valence
  BVA  - Mayer's bonded valence
  FA   - Mayer's free valence

  ATOM       NA         ZA         QA         VA         BVA        FA
  0 C      5.7569     6.0000     0.2431     3.7621     3.7621    -0.0000
  1 H      1.0804     1.0000    -0.0804     1.0739     1.0739    -0.0000
  2 H      1.0010     1.0000    -0.0010     1.0221     1.0221    -0.0000
  3 C      6.0430     6.0000    -0.0430     3.9650     3.9650    -0.0000
  4 C      5.9431     6.0000     0.0569     4.4896     4.4896     0.0000
  5 O      8.4061     8.0000    -0.4061     2.0782     2.0782     0.0000
  6 O      8.4442     8.0000    -0.4442     2.0228     2.0228    -0.0000
  7 O      8.3934     8.0000    -0.3934     2.0806     2.0806    -0.0000
  8 C      6.1285     6.0000    -0.1285     3.9171     3.9171     0.0000
  9 H      1.1019     1.0000    -0.1019     0.9786     0.9786     0.0000
 10 C      5.9183     6.0000     0.0817     3.8821     3.8821     0.0000
 11 H      1.0617     1.0000    -0.0617     1.0426     1.0426     0.0000
 12 C      6.2348     6.0000    -0.2348     3.7069     3.7069    -0.0000
 13 C      5.9269     6.0000     0.0731     3.8947     3.8947    -0.0000
 14 H      0.9699     1.0000     0.0301     1.0272     1.0272    -0.0000
 15 C      6.1216     6.0000    -0.1216     3.9085     3.9085    -0.0000
 16 H      1.0299     1.0000    -0.0299     0.9927     0.9927    -0.0000
 17 C      5.6708     6.0000     0.3292     3.7656     3.7656    -0.0000
 18 H      1.0543     1.0000    -0.0543     1.0668     1.0668    -0.0000
 19 O      8.3433     8.0000    -0.3433     2.0330     2.0330    -0.0000
 20 H      0.8514     1.0000     0.1486     1.0246     1.0246    -0.0000
 21 C      5.8534     6.0000     0.1466     4.4524     4.4524     0.0000
 22 O      8.4462     8.0000    -0.4462     2.0366     2.0366    -0.0000
 23 O      8.2190     8.0000    -0.2190     2.3018     2.3018    -0.0000

  Mayer bond orders larger than 0.100000
B(  0-C ,  1-H ) :   0.8466 B(  0-C ,  2-H ) :   0.9208 B(  0-C ,  3-C ) :   1.0195 
B(  0-C , 12-C ) :   0.9726 B(  1-H , 22-O ) :   0.1049 B(  3-C ,  4-C ) :   0.8248 
B(  3-C ,  7-O ) :   1.9164 B(  4-C ,  5-O ) :   1.8671 B(  4-C ,  6-O ) :   1.7739 
B(  5-O ,  6-O ) :   0.1282 B(  6-O , 18-H ) :   0.1020 B(  8-C ,  9-H ) :   0.9544 
B(  8-C , 10-C ) :   1.8350 B(  8-C , 17-C ) :   0.9705 B( 10-C , 11-H ) :   0.9579 
B( 10-C , 12-C ) :   1.0042 B( 12-C , 13-C ) :   0.9632 B( 12-C , 21-C ) :   0.7293 
B( 13-C , 14-H ) :   0.9658 B( 13-C , 15-C ) :   1.8479 B( 15-C , 16-H ) :   0.9728 
B( 15-C , 17-C ) :   0.9821 B( 17-C , 18-H ) :   0.8465 B( 17-C , 19-O ) :   0.9826 
B( 19-O , 20-H ) :   0.9812 B( 21-C , 22-O ) :   1.7079 B( 21-C , 23-O ) :   1.9952 
B( 22-O , 23-O ) :   0.1240 

-------
TIMINGS
-------

Total SCF time: 0 days 0 hours 0 min 56 sec 

Total time                  ....      56.466 sec
Sum of individual times     ....      55.820 sec  ( 98.9%)

SCF preparation             ....       2.703 sec  (  4.8%)
Fock matrix formation       ....      50.720 sec  ( 89.8%)
  Startup                   ....       0.291 sec  (  0.6% of F)
  Split-RI-J                ....       5.058 sec  ( 10.0% of F)
  Chain of spheres X        ....      31.077 sec  ( 61.3% of F)
  XC integration            ....       7.820 sec  ( 15.4% of F)
    XC Preparation          ....       0.000 sec  (  0.0% of XC)
    Basis function eval.    ....       2.061 sec  ( 26.4% of XC)
    Density eval.           ....       1.303 sec  ( 16.7% of XC)
    XC-Functional eval.     ....       0.347 sec  (  4.4% of XC)
    XC-Potential eval.      ....       1.364 sec  ( 17.4% of XC)
  CPCM terms                ....       5.345 sec  ( 10.5% of F)
Diagonalization             ....       0.000 sec  (  0.0%)
Density matrix formation    ....       0.562 sec  (  1.0%)
Total Energy calculation    ....       0.269 sec  (  0.5%)
Population analysis         ....       0.084 sec  (  0.1%)
Orbital Transformation      ....       0.125 sec  (  0.2%)
Orbital Orthonormalization  ....       0.000 sec  (  0.0%)
DIIS solution               ....       0.770 sec  (  1.4%)
SOSCF solution              ....       0.587 sec  (  1.0%)
Finished LeanSCF after  56.6 sec

Maximum memory used throughout the entire LEANSCF-calculation: 31.4 MB


-------------------------------------------------------------------------------
                          DFT DISPERSION CORRECTION                            
                                                                               
                              DFTD3 V3.1  Rev 1                                
                          USING Becke-Johnson damping                          
-------------------------------------------------------------------------------
The B3LYP functional is recognized
Active option DFTDOPT                   ...         4   

molecular C6(AA) [au] = 6861.108343 


            DFT-D V3
 parameters
 s6 scaling factor         :     1.0000 
 a1 scaling factor         :     0.3981 
 s8 scaling factor         :     1.9889 
 a2 scaling factor         :     4.4211 
 ad hoc parameters k1-k3   :    16.0000     1.3333    -4.0000 

 Edisp/kcal,au: -34.113852350938  -0.054363878351 
 E6   /kcal   : -15.962716921 
 E8   /kcal   : -18.151135430 
 % E8         :  53.207521810 

-------------------------   ----------------
Dispersion correction           -0.054363878
-------------------------   ----------------


-------------------------   --------------------
FINAL SINGLE POINT ENERGY      -836.251591409829
-------------------------   --------------------



           ************************************************************
           *        Program running with 8 parallel MPI-processes     *
           *              working on a common directory               *
           ************************************************************
------------------------------------------------------------------------------
                         ORCA SCF GRADIENT CALCULATION
------------------------------------------------------------------------------

Nuc. rep. gradient        (SHARK) ... done (  0.0 sec)
HCore & Overlap gradient  (SHARK) ... done (  0.2 sec)
Split-RIJ-J gradient      (SHARK) ... done (  1.1 sec)
COSX-gradient                     ... done ( 15.9 sec)
XC gradient                       ... done (  2.6 sec)
CPCM gradient                     ... done (  1.2 sec)
Point charge gradient             ... done (  0.2 sec)
Dispersion correction             ... done (  0.0 sec)

-------------------
DISPERSION GRADIENT
-------------------

   1   C   :    0.000685992    0.000324674    0.000512686
   2   H   :    0.000363653    0.000072004    0.000333305
   3   H   :    0.000384700    0.000345991    0.000115466
   4   C   :    0.000169815    0.000754447    0.001023668
   5   C   :   -0.000197764    0.001047641    0.000685726
   6   O   :   -0.000012802    0.000719017    0.000144148
   7   O   :   -0.000371224    0.000615533    0.000364959
   8   O   :   -0.000089619    0.000110991    0.001046811
   9   C   :   -0.000680377   -0.000893734    0.000032190
  10   H   :   -0.000208296   -0.000387770    0.000138420
  11   C   :   -0.000003425   -0.000944803    0.000211462
  12   H   :    0.000041622   -0.000529351    0.000193218
  13   C   :    0.000565300   -0.000262262   -0.000220676
  14   C   :    0.000146588    0.000157778   -0.001101801
  15   H   :    0.000104027    0.000210521   -0.000484502
  16   C   :   -0.000591585    0.000096796   -0.001088641
  17   H   :   -0.000146802    0.000171950   -0.000381864
  18   C   :   -0.000858162   -0.000347374   -0.000448626
  19   H   :   -0.000544205    0.000024380   -0.000035758
  20   O   :   -0.000553016   -0.000126142   -0.000188508
  21   H   :   -0.000343771   -0.000099542   -0.000022941
  22   C   :    0.000884290   -0.000422456   -0.000326619
  23   O   :    0.000673042   -0.000402540    0.000001587
  24   O   :    0.000582021   -0.000235750   -0.000503711

Difference to translation invariance:
           :    0.0000000000   -0.0000000000   -0.0000000000

Difference to rotation invariance:
           :   -0.0000000000   -0.0000000000   -0.0000000000

Norm of the Dispersion gradient    ...    0.0041903040
RMS gradient                       ...    0.0004938321
MAX gradient                       ...    0.0011018007

------------------
CARTESIAN GRADIENT
------------------

   1   C   :    0.006955201   -0.004330800   -0.004507306
   2   H   :   -0.003793919    0.004887025    0.001892553
   3   H   :    0.000979788    0.001386964    0.001006971
   4   C   :   -0.018066909   -0.017014448    0.025096272
   5   C   :   -0.006874527   -0.013021647    0.010165974
   6   O   :   -0.001754806    0.007377673   -0.005090040
   7   O   :    0.012281127    0.000871956   -0.007508955
   8   O   :    0.011955036    0.022387204   -0.042238265
   9   C   :   -0.000260892   -0.001025513    0.000507402
  10   H   :    0.004172087    0.005362317    0.000333556
  11   C   :   -0.002445823   -0.006129866   -0.001396436
  12   H   :   -0.003338027    0.002298762    0.001297328
  13   C   :    0.014055656   -0.001368049   -0.003158315
  14   C   :   -0.001526657   -0.000395794    0.001192067
  15   H   :    0.000059831    0.001139378   -0.001728925
  16   C   :   -0.000835182    0.000564637   -0.001208938
  17   H   :    0.000672151    0.000792899    0.000385026
  18   C   :   -0.002802746   -0.001033480   -0.000825120
  19   H   :    0.002300224   -0.000668543   -0.003153845
  20   O   :    0.011100995    0.002059931    0.006170632
  21   H   :   -0.003686313   -0.000895304    0.001147142
  22   C   :   -0.042312713    0.019066082    0.040875460
  23   O   :    0.011969437   -0.008480544   -0.027322837
  24   O   :    0.025568444   -0.018114704   -0.029140217

Difference to translation invariance:
           :    0.0143714640   -0.0042838637   -0.0372088167

Difference to rotation invariance:
           :   -1.9310991886    5.6989352951   -1.4300768989

Norm of the Cartesian gradient     ...    0.1075883160
RMS gradient                       ...    0.0126794046
MAX gradient                       ...    0.0423127125

-------
TIMINGS
-------

Total SCF gradient time     ....       21.267 sec

Densities                   ....       0.001 sec  (  0.0%)
One electron gradient       ....       0.185 sec  (  0.9%)
RI-J Coulomb gradient       ....       1.133 sec  (  5.3%)
COSX gradient               ....      15.886 sec  ( 74.7%)
XC gradient                 ....       2.574 sec  ( 12.1%)
CPCM gradient               ....       1.195 sec  (  5.6%)
   A-Matrix (El+Nuc)        ....       0.181 sec  (  0.9%)
   Potential                ....       1.014 sec  (  4.8%)

Maximum memory used throughout the entire SCFGRAD-calculation: 36.0 MB
------------------------------------------------------------------------------
                         ORCA GEOMETRY RELAXATION STEP
------------------------------------------------------------------------------

Reading the OPT-File                    .... done
Number of atoms                         ....  24
Number of degrees of freedom            ....  72
Current Energy                          ....  -836.251591410 Eh
Current gradient norm                   ....     0.107588316 Eh/bohr
Maximum allowed component of the step   ....  0.300
Current trust radius                    ....  0.300
Building the approximate Hessian        .... (Almloef)  done
Building the normal mode matrix         .... done
Forming augmented Hessian.
Diagonalizing augmented Hessian.
Reducing step size.
The input lambda is                     ....    -0.026500
   iter:   5  x=   -0.079079  g=    1.952353 f(x)=     0.002421
The output lambda is                    ....    -0.079106 (8 iterations)
The step size is now                    ....  0.300
Storing new coordinates                 .... done

                                .--------------------.
          ----------------------|Geometry convergence|-------------------------
          Item                value                   Tolerance       Converged
          ---------------------------------------------------------------------
          RMS gradient        0.0126794046            0.0001000000      NO
          MAX gradient        0.0423127125            0.0003000000      NO
          RMS step            0.0353553391            0.0020000000      NO
          MAX step            0.1872440745            0.0040000000      NO
          -------------------------------------------------------------------------

The optimization has not yet converged - more geometry cycles are needed

Geometry step timings:
Preparation and reading OPT file:      0.003 s (14.318 %)
Hessian update/contruction      :      0.013 s (55.667 %)
Making the step                 :      0.002 s (10.801 %)
Storing new data                :      0.001 s ( 5.883 %)
Checking convergence            :      0.003 s (13.323 %)
Total time                      :      0.023 s

Time for energy+gradient        :     92.775 s
Time for complete geometry iter :     97.407 s

         *************************************************************
         *                GEOMETRY OPTIMIZATION CYCLE   2            *
         *************************************************************
---------------------------------
CARTESIAN COORDINATES (ANGSTROEM)
---------------------------------
  C     60.081258   34.052730   56.362373
  H     60.760629   33.533242   57.058505
  H     60.595246   34.919924   55.922530
  C     58.835605   34.458817   57.102629
  C     58.147886   35.826297   56.819254
  O     58.899671   36.792040   56.548766
  O     56.907014   35.859143   57.028576
  O     58.343073   33.725089   57.974387
  C     57.541902   31.933660   55.698563
  H     56.929821   31.166190   56.191227
  C     58.872786   31.924809   55.809357
  H     59.403753   31.158928   56.381527
  C     59.732764   33.008750   55.227941
  C     59.025529   33.705714   54.091497
  H     59.671490   34.187408   53.352562
  C     57.692490   33.717196   53.973919
  H     57.193463   34.242555   53.153079
  C     56.803063   33.033807   54.979764
  H     56.503990   33.807293   55.720398
  O     55.626661   32.546945   54.328533
  H     55.031718   32.217248   55.014129
  C     61.080964   32.325838   54.756619
  O     61.753538   31.800141   55.685284
  O     61.326540   32.405657   53.549373

----------------------------
CARTESIAN COORDINATES (A.U.)
----------------------------
  NO LB      ZA    FRAG     MASS         X           Y           Z
   0 C     6.0000    0    12.011  113.537124   64.350335  106.509450
   1 H     1.0000    0     1.008  114.820949   63.368644  107.824948
   2 H     1.0000    0     1.008  114.508420   65.989094  105.678267
   3 C     6.0000    0    12.011  111.183181   65.117727  107.908330
   4 C     6.0000    0    12.011  109.883581   67.701890  107.372829
   5 O     8.0000    0    15.999  111.304248   69.526880  106.861681
   6 O     8.0000    0    15.999  107.538671   67.763960  107.768390
   7 O     8.0000    0    15.999  110.252429   63.731182  109.555715
   8 C     6.0000    0    12.011  108.738435   60.345871  105.255029
   9 H     1.0000    0     1.008  107.581771   58.895563  106.186030
  10 C     6.0000    0    12.011  111.253443   60.329146  105.464401
  11 H     1.0000    0     1.008  112.256825   58.881841  106.545645
  12 C     6.0000    0    12.011  112.878565   62.377497  104.365683
  13 C     6.0000    0    12.011  111.542085   63.694568  102.218115
  14 H     1.0000    0     1.008  112.762774   64.604839  100.821731
  15 C     6.0000    0    12.011  109.023007   63.716266  101.995926
  16 H     1.0000    0     1.008  108.079981   64.709050  100.444762
  17 C     6.0000    0    12.011  107.342233   62.424848  103.896697
  18 H     1.0000    0     1.008  106.777067   63.886526  105.296293
  19 O     8.0000    0    15.999  105.119156   61.504813  102.666049
  20 H     1.0000    0     1.008  103.994876   60.881775  103.961637
  21 C     6.0000    0    12.011  115.426294   61.086981  103.475014
  22 O     8.0000    0    15.999  116.697275   60.093557  105.229937
[...]
    Threshold for H atoms                         ...       5.0000 (charges/Ang^2)
    Threshold for non-H atoms                     ...       5.0000 (charges/Ang^2)
  Epsilon function type                           ...         CPCM
Solvent:                                          ... CUSTOM
Radii:
  Scheme                                          ... Element-dependent radii
  Radius for C  used is    3.8550 Bohr (=   2.0400 Ang.)
  Radius for H  used is    2.4944 Bohr (=   1.3200 Ang.)
  Radius for O  used is    3.4469 Bohr (=   1.8240 Ang.)
Calculating surface                               ...        done! (  0.0s)
Cavity surface points                             ...         2380
Cavity Volume                                     ...    1817.6655
Cavity Surface-area                               ...     980.5665
Calculating surface distance matrix               ...        done! (  0.0s)
Performing Cholesky decomposition & store         ...        done! (  0.6s)
Overall time for CPCM initialization              ...                 0.7s

----------------------------------------D-I-I-S--------------------------------------------
Iteration    Energy (Eh)           Delta-E    RMSDP     MaxDP     DIISErr   Damp  Time(sec)
-------------------------------------------------------------------------------------------
               ***  Starting incremental Fock matrix formation  ***
    1    -836.7229314383750989     0.00e+00  3.06e-04  8.64e-03  2.47e-02  0.700   2.9
Warning: op=0 Small HOMO/LUMO gap (   0.095) - skipping pre-diagonalization
         Will do a full diagonalization
    2    -836.7244464093625993    -1.51e-03  2.81e-04  8.23e-03  1.95e-02  0.700   1.9
                               ***Turning on AO-DIIS***
    3    -836.7256057030106149    -1.16e-03  2.10e-04  6.06e-03  1.44e-02  0.700   2.2
    4    -836.7264335771058086    -8.28e-04  5.07e-04  1.39e-02  1.04e-02  0.000   2.3
                              *** Initializing SOSCF ***
---------------------------------------S-O-S-C-F--------------------------------------
Iteration    Energy (Eh)           Delta-E    RMSDP     MaxDP     MaxGrad    Time(sec)
--------------------------------------------------------------------------------------
    5    -836.7284934080137191    -2.06e-03  2.81e-05  8.18e-04  5.46e-04     2.4
               *** Restarting incremental Fock matrix formation ***
    6    -836.7284999762148345    -6.57e-06  3.25e-05  9.19e-04  1.64e-04     2.8
    7    -836.7284982088608558     1.77e-06  1.95e-05  5.78e-04  3.76e-04     2.3
    8    -836.7285025762853365    -4.37e-06  9.35e-06  3.59e-04  6.56e-05     2.4
    9    -836.7285022577673317     3.19e-07  6.06e-06  2.32e-04  1.20e-04     2.2
   10    -836.7285027164982694    -4.59e-07  1.92e-06  5.54e-05  1.12e-05     2.1
   11    -836.7285027093696499     7.13e-09  1.19e-06  4.39e-05  1.54e-05     1.9
                 **** Energy Check signals convergence ****

               *****************************************************
               *                     SUCCESS                       *
               *           SCF CONVERGED AFTER  11 CYCLES          *
               *****************************************************

Recomputing exchange energy using gridx3       ... done (    3.775 sec)
Old exchange energy                            :    -20.889505024 Eh
New exchange energy                            :    -20.889558312 Eh
Exchange energy change after final integration :     -0.000053288 Eh
Total energy after final integration           :   -836.728555997 Eh
             **** ENERGY FILE WAS UPDATED (job.en.tmp) ****

----------------
TOTAL SCF ENERGY
----------------

Total Energy       :       -836.72855599749266 Eh          -22768.54154 eV

Components:
Nuclear Repulsion  :       1020.77429275008035 Eh           27776.68064 eV
Electronic Energy  :      -1857.10648373100844 Eh          -50534.43654 eV
One Electron Energy:      -3203.69317217086154 Eh          -87176.92320 eV
Two Electron Energy:       1346.58668843985311 Eh           36642.48666 eV
CPCM Dielectric    :         -0.39631172844158 Eh             -10.78419 eV

Virial components:
Potential Energy   :      -1666.34683913348135 Eh          -45343.60272 eV
Kinetic Energy     :        829.61828313598869 Eh           22575.06118 eV
Virial Ratio       :          2.00857053539687

DFT components:
N(Alpha)           :       58.999961475488 electrons
N(Beta)            :       58.999961475488 electrons
N(Total)           :      117.999922950975 electrons
E(X)               :      -83.151277467143 Eh       
E(C)               :       -4.831523719038 Eh       
E(XC)              :      -87.982801186181 Eh       

CPCM Solvation Model Properties:
Surface-charge          :          1.98557391332430
Corrected charge        :          2.00000000000000
Outlying charge corr.   :          0.00000946067981 Eh               0.00026 eV
Free-energy (cav+disp)  :  This term is not implemented in the current solvation scheme

---------------
SCF CONVERGENCE
---------------

  Last Energy change         ...   -7.1286e-09  Tolerance :   1.0000e-08
  Last MAX-Density change    ...    4.3936e-05  Tolerance :   1.0000e-07
  Last RMS-Density change    ...    1.1896e-06  Tolerance :   5.0000e-09
  Last DIIS Error            ...    5.4591e-04  Tolerance :   5.0000e-07
  Last Orbital Gradient      ...    1.5356e-05  Tolerance :   1.0000e-05
  Last Orbital Rotation      ...    2.0843e-05  Tolerance :   1.0000e-05


Total SCF time: 0 days 0 hours 0 min 32 sec 
Finished LeanSCF after  33.7 sec

Maximum memory used throughout the entire LEANSCF-calculation: 38.5 MB


-------------------------------------------------------------------------------
                          DFT DISPERSION CORRECTION                            
                                                                               
                              DFTD3 V3.1  Rev 1                                
                          USING Becke-Johnson damping                          
-------------------------------------------------------------------------------
-------------------------   ----------------
Dispersion correction           -0.043886167
-------------------------   ----------------


-------------------------   --------------------
FINAL SINGLE POINT ENERGY      -836.772442164167
-------------------------   --------------------



           ************************************************************
           *        Program running with 8 parallel MPI-processes     *
           *              working on a common directory               *
           ************************************************************
------------------------------------------------------------------------------
                         ORCA SCF GRADIENT CALCULATION
------------------------------------------------------------------------------

Nuc. rep. gradient        (SHARK) ... done (  0.0 sec)
HCore & Overlap gradient  (SHARK) ... done (  0.1 sec)
Split-RIJ-J gradient      (SHARK) ... done (  0.6 sec)
COSX-gradient                     ... done (  7.7 sec)
XC gradient                       ... done (  1.5 sec)
CPCM gradient                     ... done (  1.0 sec)
Point charge gradient             ... done (  0.2 sec)
Dispersion correction             ... done (  0.0 sec)

-------------------
DISPERSION GRADIENT
-------------------

   1   C   :    0.000176564    0.000478868    0.000581386
   2   H   :    0.000176459    0.000162319    0.000202867
   3   H   :    0.000076698    0.000319052    0.000117138
   4   C   :   -0.000236226    0.000138954    0.000527386
   5   C   :   -0.000353016    0.000035665    0.000233549
   6   O   :   -0.000413061    0.000240063    0.000017097
   7   O   :   -0.000284645   -0.000105518    0.000136619
   8   O   :   -0.000069449   -0.000215240    0.000402201
   9   C   :   -0.000303137   -0.000522576   -0.000162423
  10   H   :   -0.000131977   -0.000322540   -0.000027676
  11   C   :    0.000091734   -0.000634953   -0.000041942
  12   H   :    0.000057726   -0.000372347    0.000041292
  13   C   :    0.000463879   -0.000149247   -0.000118635
  14   C   :    0.000223093    0.000471607   -0.000409584
  15   H   :    0.000146465    0.000307069   -0.000161238
  16   C   :   -0.000156258    0.000476415   -0.000413602
  17   H   :   -0.000054335    0.000303494   -0.000194764
  18   C   :   -0.000390885   -0.000006989   -0.000271704
  19   H   :   -0.000350277    0.000057956   -0.000015643
  20   O   :   -0.000396358   -0.000006549   -0.000315904
  21   H   :   -0.000245410   -0.000097211   -0.000178665
  22   C   :    0.000790788   -0.000215581   -0.000037951
  23   O   :    0.000536429   -0.000453972    0.000114896
  24   O   :    0.000645197    0.000111263   -0.000024699

Difference to translation invariance:
           :    0.0000000000   -0.0000000000    0.0000000000

Difference to rotation invariance:
           :    0.0000000000    0.0000000000    0.0000000000

Norm of the Dispersion gradient    ...    0.0025855044
RMS gradient                       ...    0.0003047046
MAX gradient                       ...    0.0007907881

------------------
CARTESIAN GRADIENT
------------------

   1   C   :    0.004876619   -0.000812551   -0.000398498
   2   H   :   -0.009977405    0.002907387   -0.000422353
   3   H   :    0.002491628   -0.007127712    0.002992971
   4   C   :    0.013353053    0.000132169   -0.001894658
   5   C   :    0.003876852    0.001372761   -0.005943148
   6   O   :   -0.000572923    0.009286653   -0.002767214
   7   O   :   -0.018806093   -0.010595816    0.009108590
   8   O   :    0.012637232    0.004814193   -0.003322512
   9   C   :   -0.004763036    0.009862273   -0.003353608
  10   H   :   -0.009635122   -0.013243581   -0.002756266
  11   C   :    0.009463834    0.000084576    0.006784196
  12   H   :   -0.000978025    0.000578637   -0.000727655
  13   C   :    0.001713382   -0.000255725   -0.004324265
  14   C   :    0.004261429   -0.005850329    0.007755225
  15   H   :    0.007104007    0.009697423   -0.000308601
  16   C   :   -0.003718003    0.000050693   -0.004974627
  17   H   :   -0.000797154    0.003592136   -0.002006465
  18   C   :   -0.002204426   -0.004767501    0.003764312
  19   H   :   -0.001308726    0.001235794    0.003985804
  20   O   :    0.004654264    0.015844662   -0.004131660
  21   H   :   -0.010550965   -0.017175827    0.000686061
  22   C   :   -0.004338851   -0.005874208    0.005138156
  23   O   :    0.001625529    0.003957451   -0.002452247
  24   O   :    0.005080518    0.004877041   -0.000465854

Difference to translation invariance:
           :    0.0034876193    0.0025905981   -0.0000343176

Difference to rotation invariance:
           :   -0.3025217323    0.4870609503    0.0465410769

Norm of the Cartesian gradient     ...    0.0553235487
RMS gradient                       ...    0.0065199427
MAX gradient                       ...    0.0188060927

-------
TIMINGS
-------

Total SCF gradient time     ....       11.088 sec

Densities                   ....       0.001 sec  (  0.0%)
One electron gradient       ....       0.085 sec  (  0.8%)
RI-J Coulomb gradient       ....       0.635 sec  (  5.7%)
COSX gradient               ....       7.665 sec  ( 69.1%)
XC gradient                 ....       1.492 sec  ( 13.5%)
CPCM gradient               ....       0.952 sec  (  8.6%)
   A-Matrix (El+Nuc)        ....       0.225 sec  (  2.0%)
   Potential                ....       0.727 sec  (  6.6%)

Maximum memory used throughout the entire SCFGRAD-calculation: 34.3 MB
------------------------------------------------------------------------------
                         ORCA GEOMETRY RELAXATION STEP
------------------------------------------------------------------------------

Reading the OPT-File                    .... done
Number of atoms                         ....  24
Number of degrees of freedom            ....  72
Current Energy                          ....  -836.772442164 Eh
Current gradient norm                   ....     0.055323549 Eh/bohr
Maximum allowed component of the step   ....  0.300
Current trust radius                    ....  0.467
Updating the approximate Hessian        .... done
Forming augmented Hessian.
Diagonalizing augmented Hessian.
Reducing step size.
The input lambda is                     ....    -0.007492
   iter:   5  x=   -0.009034  g=   40.046434 f(x)=     0.000000
The output lambda is                    ....    -0.009034 (6 iterations)
The step size is now                    ....  0.467
Storing new coordinates                 .... done
The predicted energy change is          .... -0.004533509
Previously predicted energy change      .... -0.003126226
Actually observed energy change         .... 0.000800321
Ratio of predicted to observed change   .... -0.256002367
New trust radius                        .... 0.311111111

                                .--------------------.
          ----------------------|Geometry convergence|-------------------------
          Item                value                   Tolerance       Converged
          ---------------------------------------------------------------------
          Energy change       0.0008003211            0.0000050000      NO
          RMS gradient        0.0065199427            0.0001000000      NO
          MAX gradient        0.0188060927            0.0003000000      NO
          RMS step            0.0549971941            0.0020000000      NO
          MAX step            0.1641639573            0.0040000000      NO
          -------------------------------------------------------------------------

The optimization has not yet converged - more geometry cycles are needed

Geometry step timings:
Preparation and reading OPT file:      0.007 s (16.988 %)
Hessian update/contruction      :      0.020 s (46.937 %)
Making the step                 :      0.002 s ( 3.852 %)
Storing new data                :      0.004 s ( 8.552 %)
Checking convergence            :      0.010 s (23.669 %)
Total time                      :      0.043 s

Time for energy+gradient        :     60.134 s
Time for complete geometry iter :     70.204 s




    ----------------------------------------------------------------------------
                                  WARNING !!!
       The optimization did not converge but reached the maximum number of
       optimization cycles.
       Please check your results very carefully.
    ----------------------------------------------------------------------------



--------------------------------
SUGGESTED CITATIONS FOR THIS RUN
--------------------------------

Below you find a list of papers that are relevant to this ORCA run
We neither can nor want to force you to cite these papers, but we appreciate if you do
You receive ORCA, which is the product of decades of hard work by many enthusiastic individuals, for free
The only thing we kindly ask in return is that you cite our papers,
We deeply appreciate it, if you show your appreciation for ORCA by not just citing the generic ORCA reference.

Please note that relegating all ORCA citations to the supporting information does *not* help us.
SI sections are not indexed - citations you put there will not count into any citation statistics
But we need these citations in order to attract the funding resources that allow us to do what we are doing

Therefore, if you are a happy ORCA user, please consider citing a few of the papers listed below in the main body of your paper

In addition to the list printed below, the program has created the file job.bibtex that contains the list in bibtex format
You can import this file easily into all common literature databanks and citation aid programs


List of essential papers. We consider these as the minimum necessary citations

  1. Neese,F.
     Software update: the ORCA program system, version 5.0
     WIRES Comput. Molec. Sci., 2022 12(1)e1606
     doi.org/10.1002/wcms.1606

List of papers to cite with high priority. The work reported in these papers was absolutely
necessary for this run to complete.
Our perspective: the developers of density functionals and basis sets usually get cited in chemistry papers
Good! But without the algorithms to do something with them, the functionals or basis sets would not do anything.
Hence, in our opinion, the algorithm design and method developments papers are equally worthy of getting cited

  1. Neese,F.
     An improvement of the resolution of the identity approximation for the formation of the Coulomb matrix
     J. Comp. Chem., 2003 24(14)1740-1747
     doi.org/10.1002/jcc.10318
  2. Neese,F.; Wennmohs,F.; Hansen,A.; Becker,U.
     Efficient, approximate and parallel Hartree-Fock and hybrid DFT calculations. A 'chain-of-spheres' algorithm for the Hartree-Fock exchange
     Chem. Phys., 2009 356(1-3)98-109
     doi.org/10.1016/j.chemphys.2008.10.036
  3. Garcia-Rates,M.; Neese,F.
     Effect of the Solute Cavity on the Solvation Energy and its Derivatives within the Framework of the Gaussian Charge Scheme
     J. Comput. Chem., 2020 41 922-939
     doi.org/10.1002/jcc.26139
  4. Helmich-Paris,B.; de Souza,B.; Neese,F.; Izsák,R.
     An improved chain of spheres for exchange algorithm
     J. Chem. Phys., 2021 155 104109
     doi.org/doi: 10.1063/5.0058766.
  5. Neese,F.
     The SHARK Integral Generation and Digestion System
     J. Comp. Chem., 2022  1-16
     doi.org/10.1002/jcc.26942
  6. Grimme,S.; Antony,J.; Ehrlich,S.; Krieg,H.
     A consistent and accurate ab initio parametrization of density functional dispersion correction (DFT-D) for the 94 elements H-Pu
     J. Chem. Phys., 2010 132 154104
     doi.org/10.1063/1.3382344
  7. Grimme,S.; Ehrlich,S.; Goerigk,L.
     Effect of the damping function in dispersion corrected density functional theory
     J. Comput. Chem., 2011 32(7)1456-1465
     doi.org/10.1002/jcc.21759

List of suggested additional citations. These are papers that are important in the 'surrounding' of 
of this run, or papers that preceded the highly important papers. If you like your results we are grateful for a citation.

  1. Izsak,R.; Neese,F.
     An overlap fitted chain of spheres exchange method
     J. Chem. Phys., 2011 135 144105
     doi.org/10.1063/1.3646921
  2. Izsak,R.; Hansen,A.; Neese,F.
     The resolution of identity and chain of spheres approximations for the LPNO-CCSD singles Fock term
     Molec. Phys., 2012 110 2413-2417
     doi.org/10.1080/00268976.2012.687466
  3. Neese,F.
     The ORCA program system
     WIRES Comput. Molec. Sci., 2012 2(1)73-78
     doi.org/10.1002/wcms.81
  4. Izsak,R.; Neese,F.; Klopper,W.
     Robust fitting techniques in the chain of spheres approximation to the Fock exchange: The role of the complementary space
     J. Chem. Phys., 2013 139 
     doi.org/10.1063/1.4819264
  5. Neese,F.
     Software update: the ORCA program system, version 4.0
     WIRES Comput. Molec. Sci., 2018 8(1)1-6
     doi.org/10.1002/wcms.1327
  6. Neese,F.; Wennmohs,F.; Becker,U.; Riplinger,C.
     The ORCA quantum chemistry program package
     J. Chem. Phys., 2020 152 Art. No. L224108
     doi.org/10.1063/5.0004608

List of optional additional citations

  1. Neese,F.
     Approximate second-order SCF convergence for spin unrestricted wavefunctions
     Chem. Phys. Lett., 2000 325(1-3)93-98
     doi.org/10.1016/s0009-2614(00)00662-x

Timings for individual modules:

Sum of individual times          ...     4182.341 sec (=  69.706 min)
Startup calculation              ...      383.857 sec (=   6.398 min)   9.2 %
SCF iterations                   ...     2674.860 sec (=  44.581 min)  64.0 %
SCF Gradient evaluation          ...     1121.204 sec (=  18.687 min)  26.8 %
Geometry relaxation              ...        2.420 sec (=   0.040 min)   0.1 %
                             ****ORCA TERMINATED NORMALLY****
TOTAL RUN TIME: 0 days 1 hours 17 minutes 24 seconds 186 msec
