
                                 *****************
                                 * O   R   C   A *
                                 *****************

                                            #,                                       
                                            ###                                      
                                            ####                                     
                                            #####                                    
                                            ######                                   
                                           ########,                                 
                                     ,,################,,,,,                         
                               ,,#################################,,                 
                          ,,##########################################,,             
                       ,#########################################, ''#####,          
                    ,#############################################,,   '####,        
                  ,##################################################,,,,####,       
                ,###########''''           ''''###############################       
              ,#####''   ,,,,##########,,,,          '''####'''          '####       
            ,##' ,,,,###########################,,,                        '##       
           ' ,,###''''                  '''############,,,                           
         ,,##''                                '''############,,,,        ,,,,,,###''
      ,#''                                            '''#######################'''  
     '                                                          ''''####''''         
             ,#######,   #######,   ,#######,      ##                                
            ,#'     '#,  ##    ##  ,#'     '#,    #''#        ,####,   ,####,        
            ##       ##  ##   ,#'  ##            #'  '#       #'       #'  '#        
            ##       ##  #######   ##           ,######,      #####,   #    #        
            '#,     ,#'  ##    ##  '#,     ,#' ,#      #,     #,   #   #,  ,#        
             '#######'   ##     ##  '#######'  #'      '#     '####' # '####'        



                #########################################################
                #                        -***-                          #
                #          Department of theory and spectroscopy        #
                #                                                       #
                #                      Frank Neese                      #
                #                                                       #
                #     Directorship, Architecture, Infrastructure        #
                #                    SHARK, DRIVERS                     #
                #        Core code/Algorithms in most modules           #
                #                                                       #
                #        Max Planck Institute fuer Kohlenforschung      #
                #                Kaiser Wilhelm Platz 1                 #
                #                 D-45470 Muelheim/Ruhr                 #
                #                      Germany                          #
                #                                                       #
                #                  All rights reserved                  #
                #                        -***-                          #
                #########################################################


                         Program Version 6.0.1  -  RELEASE   -


 With contributions from (in alphabetic order):
[Max-Planck-Institut fuer Kohlenforschung]                               
  Daniel Aravena         : Magnetic Suceptibility                        
  Michael Atanasov       : Ab Initio Ligand Field Theory (pilot matlab implementation)
  Alexander A. Auer      : GIAO ZORA, VPT2 properties, NMR spectrum      
  Ute Becker             : All parallelization in ORCA, NUMFREQ, NUMCALC 
  Giovanni Bistoni       : ED, misc. LED, open-shell LED, HFLD           
  Martin Brehm           : Molecular dynamics                            
  Dmytro Bykov           : pre 5.0 version of the SCF Hessian            
  Marcos Casanova-Páez   : Triplet and SCS-CIS(D). UHF-(DLPNO)-IP/EA/STEOM-CCSD. UHF-CVS-IP/STEOM-CCSD   
  Vijay G. Chilkuri      : MRCI spin determinant printing, contributions to CSF-ICE 
  Pauline Colinet        : FMM embedding                                 
  Dipayan Datta          : RHF DLPNO-CCSD density                        
  Achintya Kumar Dutta   : EOM-CC, STEOM-CC                              
  Nicolas Foglia         : Exact transition moments, OPA infrastructure, MCD improvements    
  Dmitry Ganyushin       : Spin-Orbit,Spin-Spin,Magnetic field MRCI      
  Miquel Garcia-Rates    : C-PCM and meta-GGA Hessian, CCSD/C-PCM, Gaussian charge scheme 
  Tiago L. C. Gouveia    : GS-ROHF, GS-ROCIS                             
  Yang Guo               : DLPNO-NEVPT2, F12-NEVPT2, CIM, IAO-localization        
  Andreas Hansen         : Spin unrestricted coupled pair/coupled cluster methods 
  Ingolf Harden          : AUTO-CI MPn and infrastructure                
  Benjamin Helmich-Paris : MC-RPA, TRAH-(SCF,CASSCF), AVAS, COSX integrals, SCF dyn. polar. 
  Lee Huntington         : MR-EOM, pCC                                   
  Robert Izsak           : Overlap fitted RIJCOSX, COSX-SCS-MP3, EOM     
  Riya Kayal             : Wick's Theorem for AUTO-CI, AUTO-CI UHF-CCSDT 
  Emily Kempfer          : AUTO-CI, RHF CISDT and CCSDT                  
  Christian Kollmar      : KDIIS, OOCD, Brueckner-CCSD(T), CCSD density, CASPT2, CASPT2-K, improved NEVPT2 
  Axel Koslowski         : Symmetry handling                             
  Simone Kossmann        : meta-GGA functionals, TD-DFT gradient, OOMP2, (MP2 Hessian; deprecated post 5.0) 
  Lucas Lang             : DCDCAS                                        
  Marvin Lechner         : AUTO-CI (C++ implementation), FIC-MRCC        
  Spencer Leger          : CASSCF response                               
  Dagmar Lenk            : GEPOL surface, SMD, ORCA-2-JSON               
  Dimitrios Liakos       : Extrapolation schemes; Compound Job, initial MDCI parallelization 
  Dimitrios Manganas     : Further ROCIS development; embedding schemes. LFT, Crystal Embedding 
  Dimitrios Pantazis     : SARC Basis sets                               
  Anastasios Papadopoulos: AUTO-CI, single reference methods and gradients 
  Taras Petrenko         : pre 6.0 DFT Hessian and TD-DFT gradient, (ASA, deprecated), ECA, 1-Electron XAS/XES, NRVS 
  Peter Pinski           : DLPNO-MP2, DLPNO-MP2 Gradient                 
  Christoph Reimann      : Effective Core Potentials                     
  Marius Retegan         : Local ZFS, SOC                                
  Christoph Riplinger    : Optimizer, TS searches, QM/MM, DLPNO-CCSD(T), (RO)-DLPNO pert. Triples 
  Michael Roemelt        : Original ROCIS implementation                 
  Masaaki Saitow         : Open-shell DLPNO-CCSD energy and density      
  Barbara Sandhoefer     : DKH picture change effects                    
  Kantharuban Sivalingam : CASSCF convergence/infrastructure, NEVPT2 and variants, FIC-MRCI 
  Bernardo de Souza      : ESD, SOC TD-DFT                               
  Georgi L. Stoychev     : AutoAux, RI-MP2 NMR, DLPNO-MP2 response, X2C  
  Van Anh Tran           : RI-MP2 g-tensors                              
  Willem Van den Heuvel  : Paramagnetic NMR                              
  Zikuan Wang            : NOTCH, Electric field optimization            
  Frank Wennmohs         : Technical directorship and infrastructure     
  Hang Xu                : AUTO-CI-Response properties                   
                                                                         
[FACCTs GmbH]                                                            
  Markus Bursch, Miquel Garcia-Rates, Christoph Riplinger, Bernardo de Souza, Georgi L. Stoychev 
                                                                 
  APM, Basis sets (HGBS, AHGBS, def-TZVP (Ac-Lr), def2-XVPD (La-Lu)), CI-OPT, improved COSX, DLPNO-Multilevel,           
  DOCKER, DRACO, updates on ESD, GOAT, IRC, LR-CPCM, MBIS, meta-GGA TD-DFT gradient, ML-optimized integration grids, 
  MM, NACMEs, nearIR, NEB, NEB-TS, NL-DFT gradient (VV10), 2- and 3-layer-ONIOM, interface openCOSMO-RS, QMMM,   
  Crystal-QMMM, SF, symmetry and pop. for TD-DFT, r2SCAN hybrids, SOLVATOR                                   
                                                                         
[Other institutions]                                                     
  V. Asgeirsson          : NEB                                           
  Christoph Bannwarth    : sTDA-DFT, sTD-DFT, PBEh-3c, B97-3c, D3        
  Sebastian Ehlert       : rSCAN, r2SCAN, r2SCAN-3c, D4, dhf basis sets  
  Marvin Friede          : D4 for Fr, Ra, Ac-Lr                          
  Lars Goerigk           : TD-DFT with DH, B97 family of functionals     
  Stefan Grimme          : VdW corrections, initial TS optimization, DFT functionals, gCP, sTDA/sTD-DF 
  Waldemar Hujo          : DFT-NL                                        
  H. Jonsson             : NEB                                           
  Holger Kruse           : gCP                                           
  Marcel Mueller         : wB97X-3c, vDZP basis set                      
  Hagen Neugebauer       : wr2SCAN                                       
  Tobias Risthaus        : range-separated hybrid DFT                    
  Lukas Wittmann         : regularized MP2, r2SCAN double-hybrids, wr2SCAN        
                                                                         
We gratefully acknowledge several colleagues who have allowed us to      
interface, adapt or use parts of their codes:                            
  Ed Valeev, F. Pavosevic, A. Kumar             : LibInt (2-el integral package), F12 methods 
  Garnet Chan, S. Sharma, J. Yang, R. Olivares  : DMRG                   
  Ulf Ekstrom                                   : XCFun DFT Library      
  Mihaly Kallay                                 : mrcc  (arbitrary order and MRCC methods)
  Frank Weinhold                                : gennbo (NPA and NBO analysis)           
  Simon Mueller                                 : openCOSMO-RS                            
  Christopher J. Cramer and Donald G. Truhlar   : smd solvation model                     
  S Lehtola, MJT Oliveira, MAL Marques          : LibXC Library                           
  Liviu Ungur et al                             : ANISO software                          


 Your calculation uses the libint2 library for the computation of 2-el integrals
 For citations please refer to: http://libint.valeyev.net

 Your ORCA version has been built with support for libXC version: 6.2.2
 For citations please refer to: https://libxc.gitlab.io

 This ORCA versions uses:
   CBLAS   interface :  Fast vector & matrix operations
   LAPACKE interface :  Fast linear algebra routines
   SCALAPACK package :  Parallel linear algebra routines
   Shared memory     :  Shared parallel matrices
   BLAS/LAPACK       :  OpenBLAS 0.3.27  USE64BITINT DYNAMIC_ARCH NO_AFFINITY Bulldozer SINGLE_THREADED
        Core in use  :  Bulldozer
   Copyright (c) 2011-2014, The OpenBLAS Project


NOTE: MaxCore=3000 MB was set to SCF,MP2,MDCI,CIPSI,MRCI and CIS
      => If you want to overwrite this, your respective input block should be placed after the MaxCore statement


***************************************
The coordinates will be read from file: start.xyz
***************************************


Your calculation utilizes the atom-pairwise dispersion correction
with the Becke-Johnson damping scheme (D3BJ)


================================================================================

----- Orbital basis set information -----
Your calculation utilizes the basis: def2-SVP
   F. Weigend and R. Ahlrichs, Phys. Chem. Chem. Phys. 7, 3297 (2005).

----- AuxJ basis set information -----
Your calculation utilizes the auxiliary basis: def2/J
   F. Weigend, Phys. Chem. Chem. Phys. 8, 1057 (2006).

================================================================================
                                        WARNINGS
                       Please study these warnings very carefully!
================================================================================


WARNING: Geometry Optimization
  ===> : Switching off AutoStart
         For restart on a previous wavefunction, please use MOREAD

WARNING: The chosen methods will break translational/rotational symmetry
  ===> : Will NOT project out the translational and rotational degrees of freedom
         of the Hessians, in case Hessians are calculated!

WARNING: The chosen methods will break translational symmetry
  ===> : Will NOT exploit translational invariance of the Hessians,
         in case Hessians are calculated!

WARNING: The chosen methods will break translational symmetry
  ===> : Will NOT make the numerical gradients translationally invariant,
         in case numerical gradients are calculated!

================================================================================
                                       INPUT FILE
================================================================================
NAME = job.inp
|  1> ! B3LYP D3BJ def2-SVP def2/J RIJCOSX CPCM TightSCF Opt
|  2> %maxcore 3000
|  3> %pal nprocs 8 end
|  4> %cpcm epsilon 4.0 end
|  5> %scf MaxIter 300 end
|  6> %geom coordsys cartesian end
|  7> %pointcharges "design.pc"
|  8> * xyzfile -2 1 start.xyz
|  9> 
| 10>                          ****END OF INPUT****
================================================================================

                       *****************************
                       * Geometry Optimization Run *
                       *****************************

Geometry optimization settings:
Update method            Update   .... BFGS
Choice of coordinates    CoordSys .... Cartesian
Initial Hessian          InHess   .... Almloef's Model
Max. no of cycles        MaxIter  .... 72

Convergence Tolerances:
Energy Change            TolE     ....  5.0000e-06 Eh
Max. Gradient            TolMAXG  ....  3.0000e-04 Eh/bohr
RMS Gradient             TolRMSG  ....  1.0000e-04 Eh/bohr
Max. Displacement        TolMAXD  ....  4.0000e-03 bohr
RMS Displacement         TolRMSD  ....  2.0000e-03 bohr
Strict Convergence                .... False

------------------------------------------------------------------------------
                        ORCA OPTIMIZATION COORDINATE SETUP
------------------------------------------------------------------------------

The optimization will be done in Cartesian displacement coordinates
Initial hessian                         .... (Almloef)  done
Number of atoms                         .... 24
Number of degrees of freedom            .... 72
Constrained atoms:                      

         *************************************************************
         *                GEOMETRY OPTIMIZATION CYCLE   1            *
         *************************************************************
---------------------------------
CARTESIAN COORDINATES (ANGSTROEM)
---------------------------------
  C     60.092356   34.056984   56.354594
  H     60.757862   33.544930   57.062775
  H     60.607676   34.925793   55.921397
  C     58.844721   34.465867   57.095841
  C     58.158936   35.830179   56.839235
  O     58.893519   36.799815   56.528907
  O     56.917200   35.847731   56.992850
  O     58.307613   33.702214   57.875302
  C     57.548698   31.938147   55.699735
  H     56.940391   31.183730   56.203549
  C     58.878432   31.920015   55.800043
  H     59.399305   31.165241   56.389488
  C     59.744487   33.008977   55.219846
  C     59.028550   33.707589   54.087981
  H     59.670812   34.192743   53.346365
  C     57.695381   33.716804   53.971810
  H     57.195032   34.246401   53.154887
  C     56.810468   33.035130   54.981426
  H     56.513401   33.810335   55.714955
  O     55.640479   32.543634   54.338392
  H     55.032504   32.220885   55.020192
  C     61.077105   32.332661   54.739361
  O     61.765259   31.766738   55.625475
  O     61.336808   32.358221   53.517478

----------------------------
CARTESIAN COORDINATES (A.U.)
----------------------------
  NO LB      ZA    FRAG     MASS         X           Y           Z
   0 C     6.0000    0    12.011  113.558096   64.358373  106.494749
   1 H     1.0000    0     1.008  114.815720   63.390731  107.833017
   2 H     1.0000    0     1.008  114.531909   66.000184  105.676125
   3 C     6.0000    0    12.011  111.200407   65.131050  107.895503
   4 C     6.0000    0    12.011  109.904461   67.709226  107.410588
   5 O     8.0000    0    15.999  111.292622   69.541572  106.824153
   6 O     8.0000    0    15.999  107.557920   67.742394  107.700878
   7 O     8.0000    0    15.999  110.185420   63.687955  109.368471
   8 C     6.0000    0    12.011  108.751279   60.354351  105.257245
   9 H     1.0000    0     1.008  107.601745   58.928710  106.209315
  10 C     6.0000    0    12.011  111.264112   60.320087  105.446800
  11 H     1.0000    0     1.008  112.248419   58.893770  106.560689
  12 C     6.0000    0    12.011  112.900718   62.377926  104.350386
  13 C     6.0000    0    12.011  111.547794   63.698112  102.211471
  14 H     1.0000    0     1.008  112.761493   64.614920  100.810020
  15 C     6.0000    0    12.011  109.028469   63.715526  101.991940
  16 H     1.0000    0     1.008  108.082947   64.716319  100.448179
  17 C     6.0000    0    12.011  107.356226   62.427348  103.899838
  18 H     1.0000    0     1.008  106.794851   63.892274  105.286007
  19 O     8.0000    0    15.999  105.145267   61.498556  102.684679
  20 H     1.0000    0     1.008  103.996361   60.888648  103.973095
  21 C     6.0000    0    12.011  115.419002   61.099874  103.442401
  22 O     8.0000    0    15.999  116.719424   60.030435  105.116914
  23 O     8.0000    0    15.999  115.909769   61.148176  101.133377

--------------------------------
INTERNAL COORDINATES (ANGSTROEM)
--------------------------------
 C      0   0   0     0.000000000000     0.00000000     0.00000000
 H      1   0   0     1.098461589548     0.00000000     0.00000000
 H      1   2   0     1.099110286409   109.78698018     0.00000000
 C      1   2   3     1.507721962407   108.10754442   238.10179376
 C      4   1   2     1.548384622374   121.59948918   140.32174127
 O      5   4   1     1.255432046735   117.53864483   327.72138291
 O      5   4   1     1.251324871736   115.56432106   149.08715400
 O      4   1   2     1.216227922140   120.67977853   316.90378392
 C      8   4   1     2.901891819004    90.95760493   292.24654346
 H      9   8   4     1.092250412101   102.69242948   185.09396939
 C      9   8   4     1.333635248126    72.00809656    66.55081892
 H     11   9   8     1.090154980372   121.76798256    93.77119460
 C     11   9   8     1.507487333041   122.27966865   279.72805629
 C     13  11   9     1.510543906260   110.49891247   335.78526542
 H     14  13  11     1.094472097322   115.76072218   204.77637574
 C     14  13  11     1.338252666736   122.71019010    23.42569354
 H     16  14  13     1.094616504598   121.56601137   178.73505662
 C      9   8   4     1.504766777501    92.46532995   303.25113900
 H     18   9   8     1.107816044456   109.00241103   336.40747277
 O     18   9   8     1.422650801600   111.55365888   216.37505157
 H     20  18   9     0.968840419071   108.24531154    64.09239291
 C     13  11   9     1.569757911592   107.11519686   213.71427063
 O     22  13  11     1.256591735864   116.30152023   298.78179007
 O     22  13  11     1.249438684969   117.83841463   116.20229709

---------------------------
INTERNAL COORDINATES (A.U.)
---------------------------
 C      0   0   0     0.000000000000     0.00000000     0.00000000
 H      1   0   0     2.075791572878     0.00000000     0.00000000
 H      1   2   0     2.077017432289   109.78698018     0.00000000
 C      1   2   3     2.849181595047   108.10754442   238.10179376
 C      4   1   2     2.926022886262   121.59948918   140.32174127
 O      5   4   1     2.372422748077   117.53864483   327.72138291
 O      5   4   1     2.364661312145   115.56432106   149.08715400
 O      4   1   2     2.298337689273   120.67977853   316.90378392
 C      8   4   1     5.483780808184    90.95760493   292.24654346
 H      9   8   4     2.064054148533   102.69242948   185.09396939
 C      9   8   4     2.520205381502    72.00809656    66.55081892
 H     11   9   8     2.060094356433   121.76798256    93.77119460
 C     11   9   8     2.848738209802   122.27966865   279.72805629
 C     13  11   9     2.854514296094   110.49891247   335.78526542
 H     14  13  11     2.068252525157   115.76072218   204.77637574
 C     14  13  11     2.528931038122   122.71019010    23.42569354
 H     16  14  13     2.068525415361   121.56601137   178.73505662
 C      9   8   4     2.843597104900    92.46532995   303.25113900
 H     18   9   8     2.093468930787   109.00241103   336.40747277
 O     18   9   8     2.688420399227   111.55365888   216.37505157
 H     20  18   9     1.830843059518   108.24531154    64.09239291
 C     13  11   9     2.966412549465   107.11519686   213.71427063
 O     22  13  11     2.374614242931   116.30152023   298.78179007
 O     22  13  11     2.361096935719   117.83841463   116.20229709

---------------------
BASIS SET INFORMATION
---------------------
There are 3 groups of distinct atoms

 Group   1 Type C   : 7s4p1d contracted to 3s2p1d pattern {511/31/1}
 Group   2 Type H   : 4s1p contracted to 2s1p pattern {31/1}
 Group   3 Type O   : 7s4p1d contracted to 3s2p1d pattern {511/31/1}

Atom   0C    basis set group =>   1
Atom   1H    basis set group =>   2
Atom   2H    basis set group =>   2
Atom   3C    basis set group =>   1
Atom   4C    basis set group =>   1
Atom   5O    basis set group =>   3
Atom   6O    basis set group =>   3
Atom   7O    basis set group =>   3
Atom   8C    basis set group =>   1
Atom   9H    basis set group =>   2
Atom  10C    basis set group =>   1
Atom  11H    basis set group =>   2
Atom  12C    basis set group =>   1
Atom  13C    basis set group =>   1
Atom  14H    basis set group =>   2
Atom  15C    basis set group =>   1
Atom  16H    basis set group =>   2
Atom  17C    basis set group =>   1
Atom  18H    basis set group =>   2
Atom  19O    basis set group =>   3
Atom  20H    basis set group =>   2
Atom  21C    basis set group =>   1
Atom  22O    basis set group =>   3
Atom  23O    basis set group =>   3
---------------------------------
AUXILIARY/J BASIS SET INFORMATION
---------------------------------
There are 3 groups of distinct atoms

 Group   1 Type C   : 12s5p4d2f1g contracted to 6s4p3d1f1g pattern {711111/2111/211/2/1}
 Group   2 Type H   : 5s2p1d contracted to 3s1p1d pattern {311/2/1}
 Group   3 Type O   : 12s5p4d2f1g contracted to 6s4p3d1f1g pattern {711111/2111/211/2/1}

Atom   0C    basis set group =>   1
Atom   1H    basis set group =>   2
Atom   2H    basis set group =>   2
Atom   3C    basis set group =>   1
Atom   4C    basis set group =>   1
Atom   5O    basis set group =>   3
Atom   6O    basis set group =>   3
Atom   7O    basis set group =>   3
Atom   8C    basis set group =>   1
Atom   9H    basis set group =>   2
Atom  10C    basis set group =>   1
Atom  11H    basis set group =>   2
Atom  12C    basis set group =>   1
Atom  13C    basis set group =>   1
Atom  14H    basis set group =>   2
Atom  15C    basis set group =>   1
Atom  16H    basis set group =>   2
Atom  17C    basis set group =>   1
Atom  18H    basis set group =>   2
Atom  19O    basis set group =>   3
Atom  20H    basis set group =>   2
Atom  21C    basis set group =>   1
Atom  22O    basis set group =>   3
Atom  23O    basis set group =>   3


           ************************************************************
           *        Program running with 8 parallel MPI-processes     *
           *              working on a common directory               *
           ************************************************************
------------------------------------------------------------------------------
                             ORCA STARTUP CALCULATIONS
                           -- RI-GTO INTEGRALS CHOSEN --
------------------------------------------------------------------------------
------------------------------------------------------------------------------
                   ___                                                        
                  /   \      - P O W E R E D   B Y -                         
                 /     \                                                     
                 |  |  |   _    _      __       _____    __    __             
                 |  |  |  | |  | |    /  \     |  _  \  |  |  /  |          
                  \  \/   | |  | |   /    \    | | | |  |  | /  /          
                 / \  \   | |__| |  /  /\  \   | |_| |  |  |/  /          
                |  |  |   |  __  | /  /__\  \  |    /   |      \           
                |  |  |   | |  | | |   __   |  |    \   |  |\   \          
                \     /   | |  | | |  |  |  |  | |\  \  |  | \   \       
                 \___/    |_|  |_| |__|  |__|  |_| \__\ |__|  \__/        
                                                                              
                      - O R C A' S   B I G   F R I E N D -                    
                                      &                                       
                       - I N T E G R A L  F E E D E R -                       
                                                                              
 v1 FN, 2020, v2 2021, v3 2022-2024                                           
------------------------------------------------------------------------------


----------------------
SHARK INTEGRAL PACKAGE
----------------------

Number of atoms                             ...     24
Number of basis functions                   ...    264
Number of shells                            ...    120
Maximum angular momentum                    ...      2
Integral batch strategy                     ... SHARK/LIBINT Hybrid
RI-J (if used) integral strategy            ... SPLIT-RIJ (Revised 2003 algorithm where possible)
Printlevel                                  ...      1
Contraction scheme used                     ... SEGMENTED contraction
Prescreening option                         ... SCHWARTZ
   Thresh                                   ... 2.500e-11
   Tcut                                     ... 2.500e-12
   Tpresel                                  ... 2.500e-12 
Coulomb Range Separation                    ... NOT USED
Exchange Range Separation                   ... NOT USED
Multipole approximations                    ... NOT USED
Finite Nucleus Model                        ... NOT USED
CABS basis                                  ... NOT available
Auxiliary Coulomb fitting basis             ... AVAILABLE
   # of basis functions in Aux-J            ...    872
   # of shells in Aux-J                     ...    280
   Maximum angular momentum in Aux-J        ...      4
Auxiliary J/K fitting basis                 ... NOT available
Auxiliary Correlation fitting basis         ... NOT available
Auxiliary 'external' fitting basis          ... NOT available

Checking pre-screening integrals            ... done (  0.0 sec) Dimension = 120
Check shell pair data                       ... done (  0.0 sec)
Shell pair information
Shell pair cut-off parameter TPreSel        ...   2.5e-12
Total number of shell pairs                 ...      7260
Shell pairs after pre-screening             ...      6310
Total number of primitive shell pairs       ...     27260
Primitive shell pairs kept                  ...     15842
          la=0 lb=0:   1790 shell pairs
          la=1 lb=0:   2268 shell pairs
          la=1 lb=1:    755 shell pairs
          la=2 lb=0:    837 shell pairs
          la=2 lb=1:    552 shell pairs
          la=2 lb=2:    108 shell pairs

Reading point charge file                   ... ok (2 point charges)
Calculating one electron integrals          ... done (  0.0 sec)
Calculating RI/J V-Matrix + Cholesky decomp.... done (  0.7 sec)
Calculating Nuclear repulsion               ... (+Point charges) done (  0.0 sec) ENN=   1118.105520895526 Eh

Diagonalization of the overlap matrix:
Smallest eigenvalue                        ... 3.936e-04
Time for diagonalization                   ...    0.021 sec
Threshold for overlap eigenvalues          ... 1.000e-07
Number of eigenvalues below threshold      ... 0
Time for construction of square roots      ...    0.031 sec
Total time needed                          ...    0.113 sec

-------------------
DFT GRID GENERATION
-------------------

General Integration Accuracy     IntAcc      ... 4.388
Radial Grid Type                 RadialGrid  ... OptM3 with GC (2021)
Angular Grid (max. ang.)         AngularGrid ... 4 (Lebedev-302)
Angular grid pruning method      GridPruning ... 4 (adaptive)
Weight generation scheme         WeightScheme... mBecke (2022)
Basis function cutoff            BFCut       ... 1.0000e-11
Integration weight cutoff        WCut        ... 1.0000e-14
Partially contracted basis set               ... off
Rotationally invariant grid construction     ... off
Angular grids for H and He will be reduced by one unit

Total number of grid points                  ...   121513
Total number of batches                      ...     1913
Average number of points per batch           ...       63
Average number of grid points per atom       ...     5063

--------------------
COSX GRID GENERATION
--------------------

GRIDX 1
-------
General Integration Accuracy     IntAcc      ... 3.816
Radial Grid Type                 RadialGrid  ... OptM3 with GC (2021)
Angular Grid (max. ang.)         AngularGrid ... 1 (Lebedev-50)
Angular grid pruning method      GridPruning ... 4 (adaptive)
Weight generation scheme         WeightScheme... mBecke (2022)
Basis function cutoff            BFCut       ... 1.0000e-11
Integration weight cutoff        WCut        ... 1.0000e-14
Partially contracted basis set               ... on
Rotationally invariant grid construction     ... off
Angular grids for H and He will be reduced by one unit

Total number of grid points                  ...    15380
Total number of batches                      ...      133
Average number of points per batch           ...      115
Average number of grid points per atom       ...      641
UseSFitting                                  ... on

GRIDX 2
-------
General Integration Accuracy     IntAcc      ... 4.020
Radial Grid Type                 RadialGrid  ... OptM3 with GC (2021)
Angular Grid (max. ang.)         AngularGrid ... 2 (Lebedev-110)
Angular grid pruning method      GridPruning ... 4 (adaptive)
Weight generation scheme         WeightScheme... mBecke (2022)
Basis function cutoff            BFCut       ... 1.0000e-11
Integration weight cutoff        WCut        ... 1.0000e-14
Partially contracted basis set               ... on
Rotationally invariant grid construction     ... off
Angular grids for H and He will be reduced by one unit

Total number of grid points                  ...    34374
Total number of batches                      ...      283
Average number of points per batch           ...      121
Average number of grid points per atom       ...     1432
UseSFitting                                  ... on

GRIDX 3
-------
General Integration Accuracy     IntAcc      ... 4.338
Radial Grid Type                 RadialGrid  ... OptM3 with GC (2021)
Angular Grid (max. ang.)         AngularGrid ... 3 (Lebedev-194)
Angular grid pruning method      GridPruning ... 4 (adaptive)
Weight generation scheme         WeightScheme... mBecke (2022)
Basis function cutoff            BFCut       ... 1.0000e-11
Integration weight cutoff        WCut        ... 1.0000e-14
Partially contracted basis set               ... on
Rotationally invariant grid construction     ... off
Angular grids for H and He will be reduced by one unit

Total number of grid points                  ...    75498
Total number of batches                      ...      602
Average number of points per batch           ...      125
Average number of grid points per atom       ...     3146
UseSFitting                                  ... on
Initializing property integral containers    ... done (  0.0 sec)

SHARK setup successfully completed in   7.9 seconds

Maximum memory used throughout the entire STARTUP-calculation: 34.0 MB


           ************************************************************
           *        Program running with 8 parallel MPI-processes     *
           *              working on a common directory               *
           ************************************************************
-------------------------------------------------------------------------------
                                 ORCA GUESS
                   Start orbitals & Density for SCF / CASSCF
-------------------------------------------------------------------------------

------------
SCF SETTINGS
------------
Hamiltonian:
 Density Functional     Method          .... DFT(GTOs)
 Exchange Functional    Exchange        .... B88
   X-Alpha parameter    XAlpha          ....  0.666667
   Becke's b parameter  XBeta           ....  0.004200
 Correlation Functional Correlation     .... LYP
 LDA part of GGA corr.  LDAOpt          .... VWN-5
 Gradients option       PostSCFGGA      .... off
 Hybrid DFT is turned on
   Fraction HF Exchange ScalHFX         ....  0.200000
   Scaling of DF-GGA-X  ScalDFX         ....  0.720000
   Scaling of DF-GGA-C  ScalDFC         ....  0.810000
   Scaling of DF-LDA-C  ScalLDAC        ....  1.000000
   Perturbative correction              ....  0.000000
   NL short-range parameter             ....  4.800000
 RI-approximation to the Coulomb term is turned on
   Number of AuxJ basis functions       .... 872
   RIJ-COSX (HFX calculated with COS-X)).... on


General Settings:
 Integral files         IntName         .... job
 Hartree-Fock type      HFTyp           .... RHF
 Total Charge           Charge          ....   -2
 Multiplicity           Mult            ....    1
 Number of Electrons    NEL             ....  118
 Basis Dimension        Dim             ....  264
 Nuclear Repulsion      ENuc            ....   1118.1055208955 Eh

Convergence Acceleration:
 AO-DIIS                CNVDIIS         .... on
   Start iteration      DIISMaxIt       ....    12
   Startup error        DIISStart       ....  0.200000
   # of expansion vecs  DIISMaxEq       ....     5
   Bias factor          DIISBfac        ....   1.050
   Max. coefficient     DIISMaxC        ....  10.000
 MO-DIIS                CNVKDIIS        .... off
 Trust-Rad. Augm. Hess. CNVTRAH         .... auto
   Auto Start mean grad. ratio tolernc. ....  1.125000
   Auto Start start iteration           ....    50
   Auto Start num. interpolation iter.  ....    10
   Max. Number of Micro iterations      ....    24
   Max. Number of Macro iterations      .... Maxiter - #DIIS iter
   Number of Davidson start vectors     ....     2
   Converg. threshold    (grad. norm)   ....   1.000e-05
   Grad. Scal. Fac. for Micro threshold ....   0.100
   Minimum threshold for Micro iter.    ....   1.000e-02
   NR start threshold (gradient norm)   ....   1.000e-04
   Initial trust radius                 ....   0.400
   Minimum AH scaling param. (alpha)    ....   1.000
   Maximum AH scaling param. (alpha)    .... 1000.000
   Quad. conv. algorithm                .... NR
   White noise on init. David. guess    .... on
   Maximum white noise                  ....   0.010
   Pseudo random numbers                .... off
   Inactive MOs                         .... canonical
   Orbital update algorithm             .... Taylor
   Preconditioner                       .... Diag
   Full preconditioner red. dimension   ....   250
 SOSCF                  CNVSOSCF        .... on
   Start iteration      SOSCFMaxIt      ....   150
   Startup grad/error   SOSCFStart      ....  0.003300
   Hessian update       SOSCFHessUp     .... L-BFGS
 Level Shifting         CNVShift        .... on
   Level shift para.    LevelShift      ....    0.2500
   Turn off err/grad.   ShiftErr        ....    0.0010
 Zerner damping         CNVZerner       .... off
 Static damping         CNVDamp         .... on
   Fraction old density DampFac         ....    0.7000
   Max. Damping (<1)    DampMax         ....    0.9800
   Min. Damping (>=0)   DampMin         ....    0.0000
   Turn off err/grad.   DampErr         ....    0.1000

SCF Procedure:
 Maximum # iterations   MaxIter         ....   300
 SCF integral mode      SCFMode         .... Direct
   Integral package                     .... SHARK and LIBINT hybrid scheme
 Reset frequency        DirectResetFreq ....    20
 Integral Threshold     Thresh          ....  2.500e-11 Eh
 Primitive CutOff       TCut            ....  2.500e-12 Eh

Convergence Tolerance:
 Convergence Check Mode ConvCheckMode   .... Total+1el-Energy
 Convergence forced     ConvForced      .... 0
 Energy Change          TolE            ....  1.000e-08 Eh
 1-El. energy change                    ....  1.000e-05 Eh
 Orbital Gradient       TolG            ....  1.000e-05
 Orbital Rotation angle TolX            ....  1.000e-05
 DIIS Error             TolErr          ....  5.000e-07

------------------------------
INITIAL GUESS: MODEL POTENTIAL
------------------------------
Loading Hartree-Fock densities                     ... done
Calculating cut-offs                               ... done
Initializing the effective Hamiltonian             ... done
Setting up the integral package (SHARK)            ... done
Starting the Coulomb interaction                   ... done (   0.3 sec)
Making the grid                                    ... done (   0.7 sec)
Mapping shells                                     ... done
Starting the XC term evaluation                    ... done (   0.3 sec)
  promolecular density results
     # of electrons  =    115.998698740
     EX              =   -102.846167807
     EC              =     -4.059360866
     EX+EC           =   -106.905528673
Transforming the Hamiltonian                       ... done (   0.1 sec)
Diagonalizing the Hamiltonian                      ... done (   0.0 sec)
Back transforming the eigenvectors                 ... done (   0.0 sec)
Now organizing SCF variables                       ... done
                      ------------------
                      INITIAL GUESS DONE (   1.5 sec)
                      ------------------
             **** ENERGY FILE WAS UPDATED (job.en.tmp) ****
Finished Guess after   2.8 sec
Maximum memory used throughout the entire GUESS-calculation: 20.0 MB


           ************************************************************
           *        Program running with 8 parallel MPI-processes     *
           *              working on a common directory               *
           ************************************************************

-------------------------------------------------------------------------------------------
                                      ORCA LEAN-SCF
                              memory conserving SCF solver
-------------------------------------------------------------------------------------------

--------------------
CPCM SOLVATION MODEL
--------------------
CPCM parameters:
  Epsilon                                         ...       4.0000
  Refrac                                          ...       1.3300
  Rsolv                                           ...       1.3000
  Surface type                                    ... GAUSSIAN VDW
  Discretization scheme                           ... Constant charge density
    Threshold for H atoms                         ...       5.0000 (charges/Ang^2)
    Threshold for non-H atoms                     ...       5.0000 (charges/Ang^2)
  Epsilon function type                           ...         CPCM
Solvent:                                          ... CUSTOM
Radii:
  Scheme                                          ... Element-dependent radii
  Radius for C  used is    3.8550 Bohr (=   2.0400 Ang.)
  Radius for H  used is    2.4944 Bohr (=   1.3200 Ang.)
  Radius for O  used is    3.4469 Bohr (=   1.8240 Ang.)
Calculating surface                               ...        done! (  0.0s)
Cavity surface points                             ...         2066
Cavity Volume                                     ...    1735.7773
Cavity Surface-area                               ...     851.7065
Calculating surface distance matrix               ...        done! (  0.1s)
Performing Cholesky decomposition & store         ...        done! (  1.4s)
Overall time for CPCM initialization              ...                 1.5s

----------------------------------------D-I-I-S--------------------------------------------
Iteration    Energy (Eh)           Delta-E    RMSDP     MaxDP     DIISErr   Damp  Time(sec)
-------------------------------------------------------------------------------------------
               ***  Starting incremental Fock matrix formation  ***
    1    -835.7328391386397470     0.00e+00  4.78e-03  3.10e-01  3.04e-01  0.700   6.9
Warning: op=0 Small HOMO/LUMO gap (   0.070) - skipping pre-diagonalization
         Will do a full diagonalization
    2    -836.0294772995250696    -2.97e-01  3.30e-03  2.41e-01  1.29e-01  0.700   4.0
                               ***Turning on AO-DIIS***
    3    -836.1369681484441116    -1.07e-01  1.27e-03  7.36e-02  4.04e-02  0.700   3.7
    4    -836.2028682629486411    -6.59e-02  1.80e-03  4.09e-02  1.96e-02  0.000   3.7
    5    -836.3500239220559251    -1.47e-01  4.99e-04  3.66e-02  6.02e-03  0.000   3.9
                              *** Initializing SOSCF ***
---------------------------------------S-O-S-C-F--------------------------------------
Iteration    Energy (Eh)           Delta-E    RMSDP     MaxDP     MaxGrad    Time(sec)
--------------------------------------------------------------------------------------
    6    -836.3507541146041149    -7.30e-04  1.53e-04  8.43e-03  1.36e-03     3.7
               *** Restarting incremental Fock matrix formation ***
    7    -836.3507938709258269    -3.98e-05  1.36e-04  3.74e-03  5.00e-04     6.3
    8    -836.3508079506755166    -1.41e-05  6.13e-05  1.49e-03  3.56e-04     4.8
    9    -836.3508106759077236    -2.73e-06  4.15e-05  1.14e-03  2.96e-04     4.6
   10    -836.3508133537798130    -2.68e-06  1.70e-05  5.16e-04  1.51e-04     4.5
   11    -836.3508137013886881    -3.48e-07  1.18e-05  3.06e-04  9.80e-05     4.2
   12    -836.3508140311837451    -3.30e-07  6.44e-06  3.26e-04  3.92e-05     4.1
   13    -836.3508140708349856    -3.97e-08  3.98e-06  9.01e-05  2.48e-05     4.0
   14    -836.3508141250472363    -5.42e-08  1.57e-06  7.61e-05  1.09e-05     3.6
   15    -836.3508141376239564    -1.26e-08  9.51e-07  4.85e-05  9.48e-06     3.2
   16    -836.3508141322124629     5.41e-09  3.03e-07  1.25e-05  1.80e-06     3.4
                 **** Energy Check signals convergence ****

               *****************************************************
               *                     SUCCESS                       *
               *           SCF CONVERGED AFTER  16 CYCLES          *
               *****************************************************

Recomputing exchange energy using gridx3       ... done (    8.348 sec)
Old exchange energy                            :    -20.894422660 Eh
New exchange energy                            :    -20.894413244 Eh
Exchange energy change after final integration :      0.000009416 Eh
Total energy after final integration           :   -836.350804716 Eh
             **** ENERGY FILE WAS UPDATED (job.en.tmp) ****

----------------
TOTAL SCF ENERGY
----------------

Total Energy       :       -836.35080471608978 Eh          -22758.26240 eV

Components:
Nuclear Repulsion  :       1118.10552089552584 Eh           30425.19801 eV
Electronic Energy  :      -1954.23730143747207 Eh          -53177.50046 eV
One Electron Energy:      -3400.43130000674500 Eh          -92530.43983 eV
Two Electron Energy:       1446.19399856927294 Eh           39352.93937 eV
CPCM Dielectric    :         -0.21903359026616 Eh              -5.96021 eV

Virial components:
Potential Energy   :      -1665.89111054714363 Eh          -45331.20171 eV
Kinetic Energy     :        829.54030583105384 Eh           22572.93931 eV
Virial Ratio       :          2.00820996742071

DFT components:
N(Alpha)           :       58.999978810179 electrons
N(Beta)            :       58.999978810179 electrons
N(Total)           :      117.999957620359 electrons
E(X)               :      -83.153966194273 Eh       
E(C)               :       -4.848391644738 Eh       
E(XC)              :      -88.002357839011 Eh       

CPCM Solvation Model Properties:
Surface-charge          :          1.98296660494546
Corrected charge        :          2.00000000000000
Outlying charge corr.   :          0.00001392160470 Eh               0.00038 eV
Free-energy (cav+disp)  :  This term is not implemented in the current solvation scheme

---------------
SCF CONVERGENCE
---------------

  Last Energy change         ...   -5.4115e-09  Tolerance :   1.0000e-08
  Last MAX-Density change    ...    1.2469e-05  Tolerance :   1.0000e-07
  Last RMS-Density change    ...    3.0272e-07  Tolerance :   5.0000e-09
  Last DIIS Error            ...    1.3640e-03  Tolerance :   5.0000e-07
  Last Orbital Gradient      ...    1.7981e-06  Tolerance :   1.0000e-05
  Last Orbital Rotation      ...    5.1207e-06  Tolerance :   1.0000e-05


----------------
ORBITAL ENERGIES
----------------

  NO   OCC          E(Eh)            E(eV) 
   0   2.0000     -19.089819      -519.4604 
   1   2.0000     -19.076582      -519.1002 
   2   2.0000     -19.015097      -517.4271 
   3   2.0000     -19.013856      -517.3933 
   4   2.0000     -18.948118      -515.6045 
   5   2.0000     -18.943029      -515.4660 
   6   2.0000     -10.216017      -277.9920 
   7   2.0000     -10.206546      -277.7342 
   8   2.0000     -10.176507      -276.9168 
   9   2.0000     -10.145702      -276.0786 
  10   2.0000     -10.127554      -275.5847 
  11   2.0000     -10.124187      -275.4931 
  12   2.0000     -10.122598      -275.4499 
  13   2.0000     -10.121813      -275.4285 
  14   2.0000     -10.111406      -275.1453 
  15   2.0000     -10.110691      -275.1259 
  16   2.0000      -0.998463       -27.1696 
  17   2.0000      -0.954611       -25.9763 
  18   2.0000      -0.947245       -25.7758 
  19   2.0000      -0.885738       -24.1022 
  20   2.0000      -0.862205       -23.4618 
  21   2.0000      -0.793697       -21.5976 
  22   2.0000      -0.768799       -20.9201 
  23   2.0000      -0.697145       -18.9703 
  24   2.0000      -0.673001       -18.3133 
  25   2.0000      -0.630950       -17.1690 
  26   2.0000      -0.563803       -15.3419 
  27   2.0000      -0.534165       -14.5354 
  28   2.0000      -0.521125       -14.1805 
  29   2.0000      -0.464656       -12.6439 
  30   2.0000      -0.448535       -12.2053 
  31   2.0000      -0.435226       -11.8431 
  32   2.0000      -0.426807       -11.6140 
  33   2.0000      -0.402261       -10.9461 
  34   2.0000      -0.397736       -10.8229 
  35   2.0000      -0.385151       -10.4805 
  36   2.0000      -0.377940       -10.2843 
  37   2.0000      -0.358070        -9.7436 
  38   2.0000      -0.354802        -9.6546 
  39   2.0000      -0.338549        -9.2124 
  40   2.0000      -0.336419        -9.1544 
  41   2.0000      -0.332026        -9.0349 
  42   2.0000      -0.324988        -8.8434 
  43   2.0000      -0.308058        -8.3827 
  44   2.0000      -0.299878        -8.1601 
  45   2.0000      -0.285078        -7.7574 
  46   2.0000      -0.270369        -7.3571 
  47   2.0000      -0.254807        -6.9336 
  48   2.0000      -0.245950        -6.6926 
  49   2.0000      -0.242828        -6.6077 
  50   2.0000      -0.224813        -6.1175 
  51   2.0000      -0.199056        -5.4166 
  52   2.0000      -0.192375        -5.2348 
  53   2.0000      -0.186122        -5.0646 
  54   2.0000      -0.171842        -4.6761 
  55   2.0000      -0.167198        -4.5497 
  56   2.0000      -0.120275        -3.2728 
  57   2.0000      -0.116668        -3.1747 
  58   2.0000      -0.100521        -2.7353 
  59   0.0000       0.001422         0.0387 
  60   0.0000       0.069877         1.9014 
  61   0.0000       0.078474         2.1354 
  62   0.0000       0.108323         2.9476 
  63   0.0000       0.131537         3.5793 
  64   0.0000       0.144230         3.9247 
  65   0.0000       0.165010         4.4901 
  66   0.0000       0.170768         4.6468 
  67   0.0000       0.180090         4.9005 
  68   0.0000       0.198037         5.3889 
  69   0.0000       0.200879         5.4662 
*Only the first 10 virtual orbitals were printed.

                    ********************************
                    * MULLIKEN POPULATION ANALYSIS *
                    ********************************

-----------------------
MULLIKEN ATOMIC CHARGES
-----------------------
   0 C :    0.236164
   1 H :   -0.057612
   2 H :   -0.001093
   3 C :   -0.030709
   4 C :    0.065972
   5 O :   -0.400588
   6 O :   -0.431098
   7 O :   -0.372942
   8 C :   -0.125340
   9 H :   -0.078341
  10 C :    0.060796
  11 H :   -0.049091
  12 C :   -0.225189
  13 C :    0.056680
  14 H :   -0.002451
  15 C :   -0.112672
  16 H :   -0.021409
  17 C :    0.326225
  18 H :   -0.035226
  19 O :   -0.344435
  20 H :    0.160459
  21 C :    0.138433
  22 O :   -0.433391
  23 O :   -0.323144
Sum of atomic charges:   -2.0000000

--------------------------------
MULLIKEN REDUCED ORBITAL CHARGES
--------------------------------
  0 C s       :     2.916097  s :     2.916097
      pz      :     0.938082  p :     2.815766
      px      :     0.945965
      py      :     0.931719
      dz2     :     0.003716  d :     0.031973
      dxz     :     0.009302
      dyz     :     0.007055
      dx2y2   :     0.004655
      dxy     :     0.007245

  1 H s       :     1.034393  s :     1.034393
      pz      :     0.007203  p :     0.023219
      px      :     0.008728
      py      :     0.007288

  2 H s       :     0.978467  s :     0.978467
      pz      :     0.005327  p :     0.022625
      px      :     0.006259
      py      :     0.011040

  3 C s       :     3.249185  s :     3.249185
      pz      :     0.826601  p :     2.692874
      px      :     0.938160
      py      :     0.928113
      dz2     :     0.016190  d :     0.088649
      dxz     :     0.016624
      dyz     :     0.016283
      dx2y2   :     0.022372
      dxy     :     0.017181

  4 C s       :     3.053480  s :     3.053480
      pz      :     0.876721  p :     2.741426
      px      :     0.918739
      py      :     0.945966
      dz2     :     0.009508  d :     0.139121
      dxz     :     0.028186
      dyz     :     0.010235
      dx2y2   :     0.043811
      dxy     :     0.047381

  5 O s       :     3.729655  s :     3.729655
      pz      :     1.493271  p :     4.656650
      px      :     1.633996
      py      :     1.529383
      dz2     :     0.001892  d :     0.014283
      dxz     :     0.001698
      dyz     :     0.002943
      dx2y2   :     0.002903
      dxy     :     0.004847

  6 O s       :     3.734516  s :     3.734516
      pz      :     1.561457  p :     4.682547
      px      :     1.345845
      py      :     1.775245
      dz2     :     0.001682  d :     0.014035
      dxz     :     0.004093
      dyz     :     0.000102
      dx2y2   :     0.005257
      dxy     :     0.002901

  7 O s       :     3.708220  s :     3.708220
      pz      :     1.439230  p :     4.649072
      px      :     1.634603
      py      :     1.575239
      dz2     :     0.003386  d :     0.015649
      dxz     :     0.002617
      dyz     :     0.004075
      dx2y2   :     0.002325
      dxy     :     0.003246

  8 C s       :     3.194600  s :     3.194600
      pz      :     1.016532  p :     2.897324
      px      :     0.945338
      py      :     0.935454
      dz2     :     0.003009  d :     0.033416
      dxz     :     0.007955
      dyz     :     0.004011
      dx2y2   :     0.006688
      dxy     :     0.011752

  9 H s       :     1.055337  s :     1.055337
      pz      :     0.006764  p :     0.023004
      px      :     0.006871
      py      :     0.009369

 10 C s       :     3.179477  s :     3.179477
      pz      :     0.902764  p :     2.724134
      px      :     0.911151
      py      :     0.910219
      dz2     :     0.002831  d :     0.035593
      dxz     :     0.009001
      dyz     :     0.004084
      dx2y2   :     0.008915
      dxy     :     0.010761

 11 H s       :     1.025926  s :     1.025926
      pz      :     0.006610  p :     0.023165
      px      :     0.007266
      py      :     0.009290

 12 C s       :     3.141231  s :     3.141231
      pz      :     0.982969  p :     3.036451
      px      :     1.097456
      py      :     0.956027
      dz2     :     0.008043  d :     0.047507
      dxz     :     0.009621
      dyz     :     0.011794
      dx2y2   :     0.007400
      dxy     :     0.010649

 13 C s       :     3.188960  s :     3.188960
      pz      :     0.914142  p :     2.719804
      px      :     0.883422
      py      :     0.922240
      dz2     :     0.005072  d :     0.034555
      dxz     :     0.011002
      dyz     :     0.003773
      dx2y2   :     0.005920
      dxy     :     0.008788

 14 H s       :     0.979122  s :     0.979122
      pz      :     0.009356  p :     0.023328
      px      :     0.008317
      py      :     0.005655

 15 C s       :     3.214830  s :     3.214830
      pz      :     0.923019  p :     2.865155
      px      :     0.938852
      py      :     1.003285
      dz2     :     0.003641  d :     0.032687
      dxz     :     0.011612
      dyz     :     0.003755
      dx2y2   :     0.005808
      dxy     :     0.007871

 16 H s       :     0.998643  s :     0.998643
      pz      :     0.010109  p :     0.022766
      px      :     0.005767
      py      :     0.006890

 17 C s       :     2.825442  s :     2.825442
      pz      :     0.970083  p :     2.776393
      px      :     0.872096
      py      :     0.934214
      dz2     :     0.008403  d :     0.071940
      dxz     :     0.017538
      dyz     :     0.015266
      dx2y2   :     0.014234
      dxy     :     0.016500

 18 H s       :     1.013190  s :     1.013190
      pz      :     0.008709  p :     0.022036
      px      :     0.003311
      py      :     0.010016

 19 O s       :     3.728159  s :     3.728159
      pz      :     1.512664  p :     4.603894
      px      :     1.319377
      py      :     1.771853
      dz2     :     0.002085  d :     0.012382
      dxz     :     0.005451
      dyz     :     0.002304
      dx2y2   :     0.001223
      dxy     :     0.001319

 20 H s       :     0.772381  s :     0.772381
      pz      :     0.023209  p :     0.067160
      px      :     0.023147
      py      :     0.020804

 21 C s       :     3.018022  s :     3.018022
      pz      :     0.907328  p :     2.703189
      px      :     0.913815
      py      :     0.882046
      dz2     :     0.041751  d :     0.140356
      dxz     :     0.041608
      dyz     :     0.035250
      dx2y2   :     0.010261
      dxy     :     0.011486

 22 O s       :     3.739632  s :     3.739632
      pz      :     1.557332  p :     4.679642
      px      :     1.593588
      py      :     1.528722
      dz2     :     0.002321  d :     0.014117
      dxz     :     0.003968
      dyz     :     0.003173
      dx2y2   :     0.002303
      dxy     :     0.002351

 23 O s       :     3.738374  s :     3.738374
      pz      :     1.342460  p :     4.569478
      px      :     1.663357
      py      :     1.563661
      dz2     :     0.006788  d :     0.015292
      dxz     :     0.003946
      dyz     :     0.003964
      dx2y2   :     0.000274
      dxy     :     0.000320



                     *******************************
                     * LOEWDIN POPULATION ANALYSIS *
                     *******************************

----------------------
LOEWDIN ATOMIC CHARGES
----------------------
   0 C :   -0.034711
   1 H :    0.007492
   2 H :    0.027956
   3 C :    0.044952
   4 C :   -0.084012
   5 O :   -0.362628
   6 O :   -0.389406
   7 O :   -0.281591
   8 C :   -0.089250
   9 H :   -0.006354
  10 C :    0.003620
  11 H :    0.008182
  12 C :   -0.075624
  13 C :    0.004941
  14 H :    0.028964
  15 C :   -0.071156
  16 H :    0.019549
  17 C :    0.046612
  18 H :   -0.003529
  19 O :   -0.162072
  20 H :    0.071441
  21 C :   -0.016979
  22 O :   -0.385349
  23 O :   -0.301048

-------------------------------
LOEWDIN REDUCED ORBITAL CHARGES
-------------------------------
  0 C s       :     2.856061  s :     2.856061
      pz      :     1.027601  p :     3.093822
      px      :     1.027027
      py      :     1.039194
      dz2     :     0.008421  d :     0.084828
      dxz     :     0.025179
      dyz     :     0.019853
      dx2y2   :     0.012255
      dxy     :     0.019119

  1 H s       :     0.920942  s :     0.920942
      pz      :     0.023626  p :     0.071566
      px      :     0.026184
      py      :     0.021756

  2 H s       :     0.903431  s :     0.903431
      pz      :     0.017413  p :     0.068613
      px      :     0.018455
      py      :     0.032744

  3 C s       :     2.933561  s :     2.933561
      pz      :     0.853897  p :     2.813950
      px      :     0.963895
      py      :     0.996158
      dz2     :     0.032255  d :     0.207537
      dxz     :     0.041282
      dyz     :     0.039267
      dx2y2   :     0.054865
      dxy     :     0.039868

  4 C s       :     2.872842  s :     2.872842
      pz      :     0.856284  p :     2.885637
      px      :     1.020025
      py      :     1.009328
      dz2     :     0.022337  d :     0.325533
      dxz     :     0.058836
      dyz     :     0.021985
      dx2y2   :     0.106783
      dxy     :     0.115591

  5 O s       :     3.573550  s :     3.573550
      pz      :     1.498144  p :     4.763662
      px      :     1.677527
      py      :     1.587990
      dz2     :     0.003460  d :     0.025416
      dxz     :     0.002659
      dyz     :     0.004478
      dx2y2   :     0.005041
      dxy     :     0.009779

  6 O s       :     3.566621  s :     3.566621
      pz      :     1.554692  p :     4.797425
      px      :     1.466544
      py      :     1.776190
      dz2     :     0.003647  d :     0.025359
      dxz     :     0.005592
      dyz     :     0.000154
      dx2y2   :     0.011170
      dxy     :     0.004797

  7 O s       :     3.536782  s :     3.536782
      pz      :     1.459226  p :     4.717009
      px      :     1.646371
      py      :     1.611412
      dz2     :     0.004118  d :     0.027800
      dxz     :     0.005369
      dyz     :     0.008170
      dx2y2   :     0.004695
      dxy     :     0.005447

  8 C s       :     2.879275  s :     2.879275
      pz      :     1.025003  p :     3.120999
      px      :     1.081515
      py      :     1.014481
      dz2     :     0.007027  d :     0.088975
      dxz     :     0.019915
      dyz     :     0.009252
      dx2y2   :     0.020503
      dxy     :     0.032278

  9 H s       :     0.937699  s :     0.937699
      pz      :     0.021640  p :     0.068655
      px      :     0.019175
      py      :     0.027840

 10 C s       :     2.875313  s :     2.875313
      pz      :     0.955795  p :     3.028388
      px      :     1.071270
      py      :     1.001323
      dz2     :     0.007301  d :     0.092679
      dxz     :     0.021663
      dyz     :     0.009328
      dx2y2   :     0.025265
      dxy     :     0.029121

 11 H s       :     0.920731  s :     0.920731
      pz      :     0.021857  p :     0.071087
      px      :     0.021133
      py      :     0.028096

 12 C s       :     2.873920  s :     2.873920
      pz      :     1.006056  p :     3.088110
      px      :     1.076421
      py      :     1.005633
      dz2     :     0.016934  d :     0.113595
      dxz     :     0.022978
      dyz     :     0.030806
      dx2y2   :     0.015498
      dxy     :     0.027378

 13 C s       :     2.877831  s :     2.877831
      pz      :     0.997772  p :     3.027504
      px      :     1.074030
      py      :     0.955702
      dz2     :     0.013660  d :     0.089723
      dxz     :     0.029963
      dyz     :     0.008731
      dx2y2   :     0.016913
      dxy     :     0.020457

 14 H s       :     0.900070  s :     0.900070
      pz      :     0.028462  p :     0.070966
      px      :     0.024159
      py      :     0.018346

 15 C s       :     2.877832  s :     2.877832
      pz      :     1.013865  p :     3.107377
      px      :     1.074772
      py      :     1.018741
      dz2     :     0.010120  d :     0.085948
      dxz     :     0.031429
      dyz     :     0.008596
      dx2y2   :     0.016299
      dxy     :     0.019503

 16 H s       :     0.911626  s :     0.911626
      pz      :     0.030519  p :     0.068825
      px      :     0.016383
      py      :     0.021923

 17 C s       :     2.834742  s :     2.834742
      pz      :     1.028729  p :     2.956106
      px      :     0.900197
      py      :     1.027181
      dz2     :     0.015324  d :     0.162540
      dxz     :     0.041181
      dyz     :     0.039420
      dx2y2   :     0.028769
      dxy     :     0.037845

 18 H s       :     0.931204  s :     0.931204
      pz      :     0.027637  p :     0.072325
      px      :     0.012727
      py      :     0.031961

 19 O s       :     3.452572  s :     3.452572
      pz      :     1.578385  p :     4.685851
      px      :     1.353106
      py      :     1.754360
      dz2     :     0.002825  d :     0.023649
      dxz     :     0.011239
      dyz     :     0.003556
      dx2y2   :     0.002785
      dxy     :     0.003245

 20 H s       :     0.749555  s :     0.749555
      pz      :     0.068009  p :     0.179005
      px      :     0.056253
      py      :     0.054743

 21 C s       :     2.850296  s :     2.850296
      pz      :     1.021007  p :     2.845281
      px      :     0.940881
      py      :     0.883393
      dz2     :     0.102356  d :     0.321402
      dxz     :     0.094809
      dyz     :     0.075648
      dx2y2   :     0.022296
      dxy     :     0.026293

 22 O s       :     3.569768  s :     3.569768
      pz      :     1.620567  p :     4.790356
      px      :     1.619290
      py      :     1.550500
      dz2     :     0.004016  d :     0.025225
      dxz     :     0.007859
      dyz     :     0.006055
      dx2y2   :     0.002920
      dxy     :     0.004376

 23 O s       :     3.572343  s :     3.572343
      pz      :     1.460908  p :     4.701789
      px      :     1.674441
      py      :     1.566440
      dz2     :     0.014342  d :     0.026916
      dxz     :     0.006561
      dyz     :     0.005314
      dx2y2   :     0.000350
      dxy     :     0.000349



                      *****************************
                      * MAYER POPULATION ANALYSIS *
                      *****************************

  NA   - Mulliken gross atomic population
  ZA   - Total nuclear charge
  QA   - Mulliken gross atomic charge
  VA   - Mayer's total valence
  BVA  - Mayer's bonded valence
  FA   - Mayer's free valence

  ATOM       NA         ZA         QA         VA         BVA        FA
  0 C      5.7638     6.0000     0.2362     3.7755     3.7755    -0.0000
  1 H      1.0576     1.0000    -0.0576     1.0647     1.0647    -0.0000
  2 H      1.0011     1.0000    -0.0011     1.0234     1.0234    -0.0000
  3 C      6.0307     6.0000    -0.0307     3.9547     3.9547    -0.0000
  4 C      5.9340     6.0000     0.0660     4.4842     4.4842    -0.0000
  5 O      8.4006     8.0000    -0.4006     2.0847     2.0847    -0.0000
  6 O      8.4311     8.0000    -0.4311     2.0382     2.0382    -0.0000
  7 O      8.3729     8.0000    -0.3729     2.0981     2.0981    -0.0000
  8 C      6.1253     6.0000    -0.1253     3.9318     3.9318     0.0000
  9 H      1.0783     1.0000    -0.0783     0.9839     0.9839    -0.0000
 10 C      5.9392     6.0000     0.0608     3.8920     3.8920     0.0000
 11 H      1.0491     1.0000    -0.0491     1.0362     1.0362     0.0000
 12 C      6.2252     6.0000    -0.2252     3.6948     3.6948     0.0000
 13 C      5.9433     6.0000     0.0567     3.8865     3.8865     0.0000
 14 H      1.0025     1.0000    -0.0025     1.0292     1.0292     0.0000
 15 C      6.1127     6.0000    -0.1127     3.9137     3.9137     0.0000
 16 H      1.0214     1.0000    -0.0214     0.9935     0.9935     0.0000
 17 C      5.6738     6.0000     0.3262     3.7799     3.7799     0.0000
 18 H      1.0352     1.0000    -0.0352     1.0703     1.0703     0.0000
 19 O      8.3444     8.0000    -0.3444     2.0400     2.0400    -0.0000
 20 H      0.8395     1.0000     0.1605     1.0187     1.0187    -0.0000
 21 C      5.8616     6.0000     0.1384     4.4873     4.4873     0.0000
 22 O      8.4334     8.0000    -0.4334     2.0492     2.0492    -0.0000
 23 O      8.3231     8.0000    -0.3231     2.1917     2.1917    -0.0000

  Mayer bond orders larger than 0.100000
B(  0-C ,  1-H ) :   0.8592 B(  0-C ,  2-H ) :   0.9206 B(  0-C ,  3-C ) :   1.0100 
B(  0-C , 12-C ) :   0.9813 B(  3-C ,  4-C ) :   0.8212 B(  3-C ,  7-O ) :   1.9503 
B(  4-C ,  5-O ) :   1.8639 B(  4-C ,  6-O ) :   1.7808 B(  5-O ,  6-O ) :   0.1322 
B(  6-O , 18-H ) :   0.1027 B(  8-C ,  9-H ) :   0.9611 B(  8-C , 10-C ) :   1.8459 
B(  8-C , 17-C ) :   0.9725 B( 10-C , 11-H ) :   0.9627 B( 10-C , 12-C ) :   0.9962 
B( 12-C , 13-C ) :   0.9583 B( 12-C , 21-C ) :   0.7549 B( 13-C , 14-H ) :   0.9662 
B( 13-C , 15-C ) :   1.8573 B( 15-C , 16-H ) :   0.9736 B( 15-C , 17-C ) :   0.9842 
B( 17-C , 18-H ) :   0.8475 B( 17-C , 19-O ) :   0.9906 B( 19-O , 20-H ) :   0.9776 
B( 21-C , 22-O ) :   1.7601 B( 21-C , 23-O ) :   1.9513 B( 22-O , 23-O ) :   0.1203 


-------
TIMINGS
-------

Total SCF time: 0 days 0 hours 1 min 20 sec 

Total time                  ....      80.475 sec
Sum of individual times     ....      79.677 sec  ( 99.0%)

SCF preparation             ....       3.062 sec  (  3.8%)
Fock matrix formation       ....      73.359 sec  ( 91.2%)
  Startup                   ....       0.334 sec  (  0.5% of F)
  Split-RI-J                ....       7.023 sec  (  9.6% of F)
  Chain of spheres X        ....      45.998 sec  ( 62.7% of F)
  XC integration            ....      10.821 sec  ( 14.8% of F)
    XC Preparation          ....       0.000 sec  (  0.0% of XC)
    Basis function eval.    ....       3.218 sec  ( 29.7% of XC)
    Density eval.           ....       1.907 sec  ( 17.6% of XC)
    XC-Functional eval.     ....       0.495 sec  (  4.6% of XC)
    XC-Potential eval.      ....       1.733 sec  ( 16.0% of XC)
  CPCM terms                ....       7.777 sec  ( 10.6% of F)
Diagonalization             ....       0.000 sec  (  0.0%)
Density matrix formation    ....       0.675 sec  (  0.8%)
Total Energy calculation    ....       0.373 sec  (  0.5%)
Population analysis         ....       0.117 sec  (  0.1%)
Orbital Transformation      ....       0.193 sec  (  0.2%)
Orbital Orthonormalization  ....       0.000 sec  (  0.0%)
DIIS solution               ....       1.007 sec  (  1.3%)
SOSCF solution              ....       0.891 sec  (  1.1%)
Finished LeanSCF after  80.7 sec

Maximum memory used throughout the entire LEANSCF-calculation: 31.4 MB


-------------------------------------------------------------------------------
                          DFT DISPERSION CORRECTION                            
                                                                               
                              DFTD3 V3.1  Rev 1                                
                          USING Becke-Johnson damping                          
-------------------------------------------------------------------------------
The B3LYP functional is recognized
Active option DFTDOPT                   ...         4   

molecular C6(AA) [au] = 6861.108343 


            DFT-D V3
 parameters
 s6 scaling factor         :     1.0000 
 a1 scaling factor         :     0.3981 
 s8 scaling factor         :     1.9889 
 a2 scaling factor         :     4.4211 
 ad hoc parameters k1-k3   :    16.0000     1.3333    -4.0000 

 Edisp/kcal,au: -34.113852350938  -0.054363878351 
 E6   /kcal   : -15.962716921 
 E8   /kcal   : -18.151135430 
 % E8         :  53.207521810 

-------------------------   ----------------
Dispersion correction           -0.054363878
-------------------------   ----------------


-------------------------   --------------------
FINAL SINGLE POINT ENERGY      -836.405168594441
-------------------------   --------------------



           ************************************************************
           *        Program running with 8 parallel MPI-processes     *
           *              working on a common directory               *
           ************************************************************
------------------------------------------------------------------------------
                         ORCA SCF GRADIENT CALCULATION
------------------------------------------------------------------------------

Nuc. rep. gradient        (SHARK) ... done (  0.0 sec)
HCore & Overlap gradient  (SHARK) ... done (  0.4 sec)
Split-RIJ-J gradient      (SHARK) ... done (  2.4 sec)
COSX-gradient                     ... done ( 26.0 sec)
XC gradient                       ... done (  4.4 sec)
CPCM gradient                     ... done (  1.9 sec)
Point charge gradient             ... done (  0.4 sec)
Dispersion correction             ... done (  0.1 sec)

-------------------
DISPERSION GRADIENT
-------------------

   1   C   :    0.000685992    0.000324674    0.000512686
   2   H   :    0.000363653    0.000072004    0.000333305
   3   H   :    0.000384700    0.000345991    0.000115466
   4   C   :    0.000169815    0.000754447    0.001023668
   5   C   :   -0.000197764    0.001047641    0.000685726
   6   O   :   -0.000012802    0.000719017    0.000144148
   7   O   :   -0.000371224    0.000615533    0.000364959
   8   O   :   -0.000089619    0.000110991    0.001046811
   9   C   :   -0.000680377   -0.000893734    0.000032190
  10   H   :   -0.000208296   -0.000387770    0.000138420
  11   C   :   -0.000003425   -0.000944803    0.000211462
  12   H   :    0.000041622   -0.000529351    0.000193218
  13   C   :    0.000565300   -0.000262262   -0.000220676
  14   C   :    0.000146588    0.000157778   -0.001101801
  15   H   :    0.000104027    0.000210521   -0.000484502
  16   C   :   -0.000591585    0.000096796   -0.001088641
  17   H   :   -0.000146802    0.000171950   -0.000381864
  18   C   :   -0.000858162   -0.000347374   -0.000448626
  19   H   :   -0.000544205    0.000024380   -0.000035758
  20   O   :   -0.000553016   -0.000126142   -0.000188508
  21   H   :   -0.000343771   -0.000099542   -0.000022941
  22   C   :    0.000884290   -0.000422456   -0.000326619
  23   O   :    0.000673042   -0.000402540    0.000001587
  24   O   :    0.000582021   -0.000235750   -0.000503711

Difference to translation invariance:
           :    0.0000000000   -0.0000000000   -0.0000000000

Difference to rotation invariance:
           :   -0.0000000000   -0.0000000000   -0.0000000000

Norm of the Dispersion gradient    ...    0.0041903040
RMS gradient                       ...    0.0004938321
MAX gradient                       ...    0.0011018007

------------------
CARTESIAN GRADIENT
------------------

   1   C   :    0.005005777   -0.001738271   -0.002286967
   2   H   :   -0.003165067    0.003671304    0.001579131
   3   H   :    0.001257048    0.000909972    0.000387996
   4   C   :   -0.011214127   -0.014266559    0.019093915
   5   C   :   -0.003341852   -0.017249088    0.009225725
   6   O   :   -0.003274768    0.010033243   -0.004153093
   7   O   :    0.008367559    0.003691057   -0.005803489
   8   O   :    0.006722464    0.018429672   -0.035777770
   9   C   :   -0.000958730   -0.000438201    0.000693917
  10   H   :    0.003447732    0.004482193    0.000539826
  11   C   :   -0.001229807   -0.004372550   -0.001325636
  12   H   :   -0.002687387    0.002304107    0.001162751
  13   C   :    0.009210443   -0.001400432   -0.002352837
  14   C   :    0.000010962    0.000049380    0.000442502
  15   H   :    0.000818889    0.000205327   -0.002288039
  16   C   :   -0.001461430    0.000858432   -0.000269922
  17   H   :    0.000815076    0.000546600    0.000036474
  18   C   :   -0.000121420   -0.000809718   -0.000993876
  19   H   :    0.001345779   -0.000772423   -0.002761064
  20   O   :    0.008028382    0.001918247    0.005874241
  21   H   :   -0.003016827   -0.001265011    0.001349749
  22   C   :   -0.033232017    0.017487440    0.021125921
  23   O   :    0.011832647   -0.010030798   -0.016361654
  24   O   :    0.017185309   -0.015935025   -0.012647164

Difference to translation invariance:
           :    0.0103446355   -0.0036911026   -0.0255093629

Difference to rotation invariance:
           :   -1.2718563491    3.9425926036   -1.1131167127

Norm of the Cartesian gradient     ...    0.0802109047
RMS gradient                       ...    0.0094529458
MAX gradient                       ...    0.0357777701

-------
TIMINGS
-------

Total SCF gradient time     ....       35.847 sec

Densities                   ....       0.003 sec  (  0.0%)
One electron gradient       ....       0.406 sec  (  1.1%)
RI-J Coulomb gradient       ....       2.434 sec  (  6.8%)
COSX gradient               ....      25.990 sec  ( 72.5%)
XC gradient                 ....       4.447 sec  ( 12.4%)
CPCM gradient               ....       1.947 sec  (  5.4%)
   A-Matrix (El+Nuc)        ....       0.490 sec  (  1.4%)
   Potential                ....       1.457 sec  (  4.1%)

Maximum memory used throughout the entire SCFGRAD-calculation: 36.0 MB
------------------------------------------------------------------------------
                         ORCA GEOMETRY RELAXATION STEP
------------------------------------------------------------------------------

Reading the OPT-File                    .... done
Number of atoms                         ....  24
Number of degrees of freedom            ....  72
Current Energy                          ....  -836.405168594 Eh
Current gradient norm                   ....     0.080210905 Eh/bohr
Maximum allowed component of the step   ....  0.300
Current trust radius                    ....  0.300
Building the approximate Hessian        .... (Almloef)  done
Building the normal mode matrix         .... done
Forming augmented Hessian.
Diagonalizing augmented Hessian.
Reducing step size.
The input lambda is                     ....    -0.021771
   iter:   5  x=   -0.067640  g=    2.394484 f(x)=     0.003257
The output lambda is                    ....    -0.067679 (9 iterations)
The step size is now                    ....  0.300
Storing new coordinates                 .... done

                                .--------------------.
          ----------------------|Geometry convergence|-------------------------
          Item                value                   Tolerance       Converged
          ---------------------------------------------------------------------
          RMS gradient        0.0094529458            0.0001000000      NO
          MAX gradient        0.0357777701            0.0003000000      NO
          RMS step            0.0353553391            0.0020000000      NO
          MAX step            0.2014006864            0.0040000000      NO
          -------------------------------------------------------------------------

The optimization has not yet converged - more geometry cycles are needed

Geometry step timings:
Preparation and reading OPT file:      0.009 s (16.972 %)
Hessian update/contruction      :      0.029 s (52.045 %)
Making the step                 :      0.003 s ( 5.984 %)
Storing new data                :      0.003 s ( 4.965 %)
Checking convergence            :      0.011 s (20.032 %)
Total time                      :      0.055 s

Time for energy+gradient        :    132.918 s
Time for complete geometry iter :    137.895 s

         *************************************************************
         *                GEOMETRY OPTIMIZATION CYCLE   2            *
         *************************************************************
---------------------------------
CARTESIAN COORDINATES (ANGSTROEM)
---------------------------------
  C     60.080773   34.050809   56.360359
  H     60.759468   33.534835   57.058560
  H     60.592980   34.920270   55.923302
  C     58.832657   34.456875   57.101813
  C     58.149209   35.827485   56.826417
  O     58.904608   36.785536   56.542791
  O     56.908496   35.855273   57.021373
  O     58.354162   33.728085   57.981879
  C     57.542043   31.931960   55.696908
  H     56.930593   31.165990   56.190195
  C     58.872632   31.921796   55.806850
  H     59.402101   31.156792   56.380846
  C     59.734185   33.007334   55.225535
  C     59.023454   33.705409   54.092090
  H     59.667624   34.193831   53.356597
  C     57.691215   33.714861   53.973095
  H     57.191990   34.243764   53.154807
  C     56.802177   33.032649   54.979625
  H     56.504853   33.806883   55.719642
  O     55.629481   32.545319   54.326603
  H     55.029889   32.219823   55.010610
  C     61.077252   32.326794   54.748852
  O     61.759123   31.804153   55.666980
  O     61.335145   32.413098   53.535613

----------------------------
CARTESIAN COORDINATES (A.U.)
----------------------------
  NO LB      ZA    FRAG     MASS         X           Y           Z
   0 C     6.0000    0    12.011  113.536207   64.346703  106.505643
   1 H     1.0000    0     1.008  114.818755   63.371654  107.825052
   2 H     1.0000    0     1.008  114.504138   65.989747  105.679726
   3 C     6.0000    0    12.011  111.177610   65.114057  107.906788
   4 C     6.0000    0    12.011  109.886080   67.704136  107.386364
   5 O     8.0000    0    15.999  111.313577   69.514589  106.850390
   6 O     8.0000    0    15.999  107.541472   67.756646  107.754779
   7 O     8.0000    0    15.999  110.273384   63.736843  109.569871
   8 C     6.0000    0    12.011  108.738703   60.342659  105.251902
   9 H     1.0000    0     1.008  107.583230   58.895186  106.184080
  10 C     6.0000    0    12.011  111.253150   60.323452  105.459662
  11 H     1.0000    0     1.008  112.253703   58.877804  106.544357
  12 C     6.0000    0    12.011  112.881251   62.374822  104.361136
  13 C     6.0000    0    12.011  111.538164   63.693992  102.219237
  14 H     1.0000    0     1.008  112.755469   64.616977  100.829356
  15 C     6.0000    0    12.011  109.020597   63.711854  101.994368
  16 H     1.0000    0     1.008  108.077198   64.711335  100.448028
  17 C     6.0000    0    12.011  107.340557   62.422661  103.896435
  18 H     1.0000    0     1.008  106.778698   63.885750  105.294863
  19 O     8.0000    0    15.999  105.124483   61.501739  102.662402
  20 H     1.0000    0     1.008  103.991419   60.886642  103.954987
  21 C     6.0000    0    12.011  115.419279   61.088787  103.460337
[...]
    Threshold for H atoms                         ...       5.0000 (charges/Ang^2)
    Threshold for non-H atoms                     ...       5.0000 (charges/Ang^2)
  Epsilon function type                           ...         CPCM
Solvent:                                          ... CUSTOM
Radii:
  Scheme                                          ... Element-dependent radii
  Radius for C  used is    3.8550 Bohr (=   2.0400 Ang.)
  Radius for H  used is    2.4944 Bohr (=   1.3200 Ang.)
  Radius for O  used is    3.4469 Bohr (=   1.8240 Ang.)
Calculating surface                               ...        done! (  0.0s)
Cavity surface points                             ...         2409
Cavity Volume                                     ...    1720.3462
Cavity Surface-area                               ...     991.7324
Calculating surface distance matrix               ...        done! (  0.1s)
Performing Cholesky decomposition & store         ...        done! (  0.8s)
Overall time for CPCM initialization              ...                 0.9s

----------------------------------------D-I-I-S--------------------------------------------
Iteration    Energy (Eh)           Delta-E    RMSDP     MaxDP     DIISErr   Damp  Time(sec)
-------------------------------------------------------------------------------------------
               ***  Starting incremental Fock matrix formation  ***
    1    -836.8022639429036644     0.00e+00  1.02e-04  3.32e-03  1.13e-02  0.700   5.1
Warning: op=0 Small HOMO/LUMO gap (   0.098) - skipping pre-diagonalization
         Will do a full diagonalization
    2    -836.8024984969272282    -2.35e-04  9.99e-05  3.04e-03  8.78e-03  0.700   2.9
                               ***Turning on AO-DIIS***
    3    -836.8026837049708320    -1.85e-04  7.54e-05  2.16e-03  6.39e-03  0.700   2.8
    4    -836.8028179704333525    -1.34e-04  1.83e-04  5.08e-03  4.56e-03  0.000   2.7
                              *** Initializing SOSCF ***
---------------------------------------S-O-S-C-F--------------------------------------
Iteration    Energy (Eh)           Delta-E    RMSDP     MaxDP     MaxGrad    Time(sec)
--------------------------------------------------------------------------------------
    5    -836.8031548175822536    -3.37e-04  8.70e-06  2.18e-04  1.39e-04     2.9
               *** Restarting incremental Fock matrix formation ***
    6    -836.8031558033549118    -9.86e-07  1.06e-05  3.12e-04  5.67e-05     5.0
    7    -836.8031556113719489     1.92e-07  7.19e-06  3.12e-04  1.14e-04     3.4
    8    -836.8031560999120302    -4.89e-07  3.96e-06  1.23e-04  2.22e-05     3.2
    9    -836.8031560480769713     5.18e-08  2.45e-06  9.53e-05  5.49e-05     3.0
   10    -836.8031561257980684    -7.77e-08  9.42e-07  2.53e-05  8.77e-06     2.9
   11    -836.8031561204363697     5.36e-09  5.43e-07  1.78e-05  1.14e-05     2.7
                 **** Energy Check signals convergence ****

               *****************************************************
               *                     SUCCESS                       *
               *           SCF CONVERGED AFTER  11 CYCLES          *
               *****************************************************

Recomputing exchange energy using gridx3       ... done (    6.466 sec)
Old exchange energy                            :    -20.900758970 Eh
New exchange energy                            :    -20.900750253 Eh
Exchange energy change after final integration :      0.000008717 Eh
Total energy after final integration           :   -836.803147404 Eh
             **** ENERGY FILE WAS UPDATED (job.en.tmp) ****

----------------
TOTAL SCF ENERGY
----------------

Total Energy       :       -836.80314740357505 Eh          -22770.57127 eV

Components:
Nuclear Repulsion  :       1042.62693223629549 Eh           28371.32120 eV
Electronic Energy  :      -1879.06992520252993 Eh          -51132.09217 eV
One Electron Energy:      -3239.80286636517212 Eh          -88159.51794 eV
Two Electron Energy:       1360.73294116264219 Eh           37027.42577 eV
CPCM Dielectric    :         -0.36016315420190 Eh              -9.80054 eV

Virial components:
Potential Energy   :      -1666.74977546954847 Eh          -45354.56717 eV
Kinetic Energy     :        829.94662806597341 Eh           22583.99590 eV
Virial Ratio       :          2.00826139790890

DFT components:
N(Alpha)           :       58.999994896659 electrons
N(Beta)            :       58.999994896659 electrons
N(Total)           :      117.999989793318 electrons
E(X)               :      -83.201816928293 Eh       
E(C)               :       -4.834083991611 Eh       
E(XC)              :      -88.035900919904 Eh       

CPCM Solvation Model Properties:
Surface-charge          :          1.98600435480930
Corrected charge        :          2.00000000000000
Outlying charge corr.   :          0.00000899767364 Eh               0.00024 eV
Free-energy (cav+disp)  :  This term is not implemented in the current solvation scheme

---------------
SCF CONVERGENCE
---------------

  Last Energy change         ...   -5.3617e-09  Tolerance :   1.0000e-08
  Last MAX-Density change    ...    1.7765e-05  Tolerance :   1.0000e-07
  Last RMS-Density change    ...    5.4305e-07  Tolerance :   5.0000e-09
  Last DIIS Error            ...    1.3939e-04  Tolerance :   5.0000e-07
  Last Orbital Gradient      ...    1.1446e-05  Tolerance :   1.0000e-05
  Last Orbital Rotation      ...    1.3964e-05  Tolerance :   1.0000e-05


Total SCF time: 0 days 0 hours 0 min 45 sec 
Finished LeanSCF after  47.1 sec

Maximum memory used throughout the entire LEANSCF-calculation: 39.0 MB


-------------------------------------------------------------------------------
                          DFT DISPERSION CORRECTION                            
                                                                               
                              DFTD3 V3.1  Rev 1                                
                          USING Becke-Johnson damping                          
-------------------------------------------------------------------------------
-------------------------   ----------------
Dispersion correction           -0.044690140
-------------------------   ----------------


-------------------------   --------------------
FINAL SINGLE POINT ENERGY      -836.847837543811
-------------------------   --------------------



           ************************************************************
           *        Program running with 8 parallel MPI-processes     *
           *              working on a common directory               *
           ************************************************************
------------------------------------------------------------------------------
                         ORCA SCF GRADIENT CALCULATION
------------------------------------------------------------------------------

Nuc. rep. gradient        (SHARK) ... done (  0.0 sec)
HCore & Overlap gradient  (SHARK) ... done (  0.2 sec)
Split-RIJ-J gradient      (SHARK) ... done (  1.3 sec)
COSX-gradient                     ... done ( 15.8 sec)
XC gradient                       ... done (  3.4 sec)
CPCM gradient                     ... done (  1.9 sec)
Point charge gradient             ... done (  0.4 sec)
Dispersion correction             ... done (  0.1 sec)

-------------------
DISPERSION GRADIENT
-------------------

   1   C   :    0.000288288    0.000390649    0.000789468
   2   H   :    0.000186978    0.000116761    0.000246624
   3   H   :    0.000123766    0.000344692    0.000266998
   4   C   :   -0.000151673    0.000068296    0.000605088
   5   C   :   -0.000342055    0.000054332    0.000423857
   6   O   :   -0.000469166    0.000304031    0.000215246
   7   O   :   -0.000261531   -0.000083873    0.000186079
   8   O   :   -0.000016885   -0.000218831    0.000346821
   9   C   :   -0.000271723   -0.000574376   -0.000213498
  10   H   :   -0.000100246   -0.000344525   -0.000057780
  11   C   :    0.000151560   -0.000683869   -0.000215296
  12   H   :    0.000087306   -0.000382330   -0.000056247
  13   C   :    0.000531126   -0.000149437   -0.000346357
  14   C   :    0.000075275    0.000537643   -0.000561676
  15   H   :    0.000062109    0.000379132   -0.000188097
  16   C   :   -0.000339730    0.000502689   -0.000413480
  17   H   :   -0.000143939    0.000326848   -0.000129234
  18   C   :   -0.000465740   -0.000060594   -0.000246188
  19   H   :   -0.000381391   -0.000063045   -0.000027952
  20   O   :   -0.000465717   -0.000012677   -0.000249957
  21   H   :   -0.000279248   -0.000097229   -0.000139475
  22   C   :    0.000861033   -0.000138360   -0.000203506
  23   O   :    0.000680647   -0.000331408    0.000096568
  24   O   :    0.000640957    0.000115480   -0.000128007

Difference to translation invariance:
           :   -0.0000000000    0.0000000000   -0.0000000000

Difference to rotation invariance:
           :   -0.0000000000   -0.0000000000    0.0000000000

Norm of the Dispersion gradient    ...    0.0028850721
RMS gradient                       ...    0.0003400090
MAX gradient                       ...    0.0008610335

------------------
CARTESIAN GRADIENT
------------------

   1   C   :    0.000190834    0.000981129   -0.001407907
   2   H   :    0.000296270   -0.000477865    0.000804932
   3   H   :    0.000581857   -0.000729446   -0.000346440
   4   C   :   -0.001226454   -0.001401731    0.000922318
   5   C   :   -0.000857029    0.000514390   -0.000045336
   6   O   :    0.001318143    0.000418882    0.000432733
   7   O   :    0.002120635    0.000039794   -0.000128076
   8   O   :   -0.003955116   -0.000661085   -0.000800718
   9   C   :   -0.000766838    0.000061192    0.000233943
  10   H   :   -0.000547495   -0.000231321    0.000512894
  11   C   :   -0.000608195    0.000178110    0.000522821
  12   H   :   -0.000108518   -0.000580980    0.000527041
  13   C   :    0.000525683    0.000577729   -0.001158048
  14   C   :    0.000246067   -0.000101636    0.000102782
  15   H   :    0.000107490    0.000273424   -0.000490572
  16   C   :   -0.000240717    0.001902307   -0.001056503
  17   H   :    0.000601724   -0.000483854    0.000135461
  18   C   :   -0.000505416   -0.001271528    0.000381065
  19   H   :    0.000071062    0.000597265    0.000423696
  20   O   :   -0.001016000   -0.000962237    0.000391636
  21   H   :    0.000194294    0.000875228    0.000253802
  22   C   :    0.000302067   -0.000478939    0.000413543
  23   O   :    0.000123992   -0.000219288    0.000396620
  24   O   :   -0.000068944    0.000378154   -0.002044344

Difference to translation invariance:
           :   -0.0032206021   -0.0008023063   -0.0010226561

Difference to rotation invariance:
           :    0.0181895354   -0.2238677706    0.0885731845

Norm of the Cartesian gradient     ...    0.0073826246
RMS gradient                       ...    0.0008700507
MAX gradient                       ...    0.0039551158

-------
TIMINGS
-------

Total SCF gradient time     ....       23.220 sec

Densities                   ....       0.002 sec  (  0.0%)
One electron gradient       ....       0.218 sec  (  0.9%)
RI-J Coulomb gradient       ....       1.331 sec  (  5.7%)
COSX gradient               ....      15.836 sec  ( 68.2%)
XC gradient                 ....       3.415 sec  ( 14.7%)
CPCM gradient               ....       1.930 sec  (  8.3%)
   A-Matrix (El+Nuc)        ....       0.633 sec  (  2.7%)
   Potential                ....       1.298 sec  (  5.6%)

Maximum memory used throughout the entire SCFGRAD-calculation: 34.5 MB
------------------------------------------------------------------------------
                         ORCA GEOMETRY RELAXATION STEP
------------------------------------------------------------------------------

Reading the OPT-File                    .... done
Number of atoms                         ....  24
Number of degrees of freedom            ....  72
Current Energy                          ....  -836.847837544 Eh
Current gradient norm                   ....     0.007382625 Eh/bohr
Maximum allowed component of the step   ....  0.300
Current trust radius                    ....  0.338
Updating the approximate Hessian        .... done
Forming augmented Hessian.
Diagonalizing augmented Hessian.
Reducing step size.
The input lambda is                     ....    -0.002342
   iter:   5  x=   -0.006777  g=   33.641769 f(x)=     0.004952
The output lambda is                    ....    -0.006782 (8 iterations)
The step size is now                    ....  0.337
Storing new coordinates                 .... done
The predicted energy change is          .... -0.000869950
Previously predicted energy change      .... -0.000509480
Actually observed energy change         .... -0.000501414
Ratio of predicted to observed change   .... 0.984168918
New trust radius                        .... 0.506250000

                                .--------------------.
          ----------------------|Geometry convergence|-------------------------
          Item                value                   Tolerance       Converged
          ---------------------------------------------------------------------
          Energy change      -0.0005014142            0.0000050000      NO
          RMS gradient        0.0008700507            0.0001000000      NO
          MAX gradient        0.0039551158            0.0003000000      NO
          RMS step            0.0397747564            0.0020000000      NO
          MAX step            0.1044499252            0.0040000000      NO
          -------------------------------------------------------------------------

The optimization has not yet converged - more geometry cycles are needed

Geometry step timings:
Preparation and reading OPT file:      0.006 s (15.354 %)
Hessian update/contruction      :      0.018 s (44.925 %)
Making the step                 :      0.004 s (10.737 %)
Storing new data                :      0.002 s ( 5.717 %)
Checking convergence            :      0.009 s (23.267 %)
Total time                      :      0.040 s

Time for energy+gradient        :     82.165 s
Time for complete geometry iter :     88.211 s




    ----------------------------------------------------------------------------
                                  WARNING !!!
       The optimization did not converge but reached the maximum number of
       optimization cycles.
       Please check your results very carefully.
    ----------------------------------------------------------------------------



--------------------------------
SUGGESTED CITATIONS FOR THIS RUN
--------------------------------

Below you find a list of papers that are relevant to this ORCA run
We neither can nor want to force you to cite these papers, but we appreciate if you do
You receive ORCA, which is the product of decades of hard work by many enthusiastic individuals, for free
The only thing we kindly ask in return is that you cite our papers,
We deeply appreciate it, if you show your appreciation for ORCA by not just citing the generic ORCA reference.

Please note that relegating all ORCA citations to the supporting information does *not* help us.
SI sections are not indexed - citations you put there will not count into any citation statistics
But we need these citations in order to attract the funding resources that allow us to do what we are doing

Therefore, if you are a happy ORCA user, please consider citing a few of the papers listed below in the main body of your paper

In addition to the list printed below, the program has created the file job.bibtex that contains the list in bibtex format
You can import this file easily into all common literature databanks and citation aid programs


List of essential papers. We consider these as the minimum necessary citations

  1. Neese,F.
     Software update: the ORCA program system, version 5.0
     WIRES Comput. Molec. Sci., 2022 12(1)e1606
     doi.org/10.1002/wcms.1606

List of papers to cite with high priority. The work reported in these papers was absolutely
necessary for this run to complete.
Our perspective: the developers of density functionals and basis sets usually get cited in chemistry papers
Good! But without the algorithms to do something with them, the functionals or basis sets would not do anything.
Hence, in our opinion, the algorithm design and method developments papers are equally worthy of getting cited

  1. Neese,F.
     An improvement of the resolution of the identity approximation for the formation of the Coulomb matrix
     J. Comp. Chem., 2003 24(14)1740-1747
     doi.org/10.1002/jcc.10318
  2. Neese,F.; Wennmohs,F.; Hansen,A.; Becker,U.
     Efficient, approximate and parallel Hartree-Fock and hybrid DFT calculations. A 'chain-of-spheres' algorithm for the Hartree-Fock exchange
     Chem. Phys., 2009 356(1-3)98-109
     doi.org/10.1016/j.chemphys.2008.10.036
  3. Garcia-Rates,M.; Neese,F.
     Effect of the Solute Cavity on the Solvation Energy and its Derivatives within the Framework of the Gaussian Charge Scheme
     J. Comput. Chem., 2020 41 922-939
     doi.org/10.1002/jcc.26139
  4. Helmich-Paris,B.; de Souza,B.; Neese,F.; Izsák,R.
     An improved chain of spheres for exchange algorithm
     J. Chem. Phys., 2021 155 104109
     doi.org/doi: 10.1063/5.0058766.
  5. Neese,F.
     The SHARK Integral Generation and Digestion System
     J. Comp. Chem., 2022  1-16
     doi.org/10.1002/jcc.26942
  6. Grimme,S.; Antony,J.; Ehrlich,S.; Krieg,H.
     A consistent and accurate ab initio parametrization of density functional dispersion correction (DFT-D) for the 94 elements H-Pu
     J. Chem. Phys., 2010 132 154104
     doi.org/10.1063/1.3382344
  7. Grimme,S.; Ehrlich,S.; Goerigk,L.
     Effect of the damping function in dispersion corrected density functional theory
     J. Comput. Chem., 2011 32(7)1456-1465
     doi.org/10.1002/jcc.21759

List of suggested additional citations. These are papers that are important in the 'surrounding' of 
of this run, or papers that preceded the highly important papers. If you like your results we are grateful for a citation.

  1. Izsak,R.; Neese,F.
     An overlap fitted chain of spheres exchange method
     J. Chem. Phys., 2011 135 144105
     doi.org/10.1063/1.3646921
  2. Izsak,R.; Hansen,A.; Neese,F.
     The resolution of identity and chain of spheres approximations for the LPNO-CCSD singles Fock term
     Molec. Phys., 2012 110 2413-2417
     doi.org/10.1080/00268976.2012.687466
  3. Neese,F.
     The ORCA program system
     WIRES Comput. Molec. Sci., 2012 2(1)73-78
     doi.org/10.1002/wcms.81
  4. Izsak,R.; Neese,F.; Klopper,W.
     Robust fitting techniques in the chain of spheres approximation to the Fock exchange: The role of the complementary space
     J. Chem. Phys., 2013 139 
     doi.org/10.1063/1.4819264
  5. Neese,F.
     Software update: the ORCA program system, version 4.0
     WIRES Comput. Molec. Sci., 2018 8(1)1-6
     doi.org/10.1002/wcms.1327
  6. Neese,F.; Wennmohs,F.; Becker,U.; Riplinger,C.
     The ORCA quantum chemistry program package
     J. Chem. Phys., 2020 152 Art. No. L224108
     doi.org/10.1063/5.0004608

List of optional additional citations

  1. Neese,F.
     Approximate second-order SCF convergence for spin unrestricted wavefunctions
     Chem. Phys. Lett., 2000 325(1-3)93-98
     doi.org/10.1016/s0009-2614(00)00662-x

Timings for individual modules:

Sum of individual times          ...     7049.466 sec (= 117.491 min)
Startup calculation              ...      490.941 sec (=   8.182 min)   7.0 %
SCF iterations                   ...     4373.185 sec (=  72.886 min)  62.0 %
SCF Gradient evaluation          ...     2182.593 sec (=  36.377 min)  31.0 %
Geometry relaxation              ...        2.747 sec (=   0.046 min)   0.0 %
                             ****ORCA TERMINATED NORMALLY****
TOTAL RUN TIME: 0 days 2 hours 3 minutes 35 seconds 556 msec
