
                                 *****************
                                 * O   R   C   A *
                                 *****************

                                            #,                                       
                                            ###                                      
                                            ####                                     
                                            #####                                    
                                            ######                                   
                                           ########,                                 
                                     ,,################,,,,,                         
                               ,,#################################,,                 
                          ,,##########################################,,             
                       ,#########################################, ''#####,          
                    ,#############################################,,   '####,        
                  ,##################################################,,,,####,       
                ,###########''''           ''''###############################       
              ,#####''   ,,,,##########,,,,          '''####'''          '####       
            ,##' ,,,,###########################,,,                        '##       
           ' ,,###''''                  '''############,,,                           
         ,,##''                                '''############,,,,        ,,,,,,###''
      ,#''                                            '''#######################'''  
     '                                                          ''''####''''         
             ,#######,   #######,   ,#######,      ##                                
            ,#'     '#,  ##    ##  ,#'     '#,    #''#        ,####,   ,####,        
            ##       ##  ##   ,#'  ##            #'  '#       #'       #'  '#        
            ##       ##  #######   ##           ,######,      #####,   #    #        
            '#,     ,#'  ##    ##  '#,     ,#' ,#      #,     #,   #   #,  ,#        
             '#######'   ##     ##  '#######'  #'      '#     '####' # '####'        



                #########################################################
                #                        -***-                          #
                #          Department of theory and spectroscopy        #
                #                                                       #
                #                      Frank Neese                      #
                #                                                       #
                #     Directorship, Architecture, Infrastructure        #
                #                    SHARK, DRIVERS                     #
                #        Core code/Algorithms in most modules           #
                #                                                       #
                #        Max Planck Institute fuer Kohlenforschung      #
                #                Kaiser Wilhelm Platz 1                 #
                #                 D-45470 Muelheim/Ruhr                 #
                #                      Germany                          #
                #                                                       #
                #                  All rights reserved                  #
                #                        -***-                          #
                #########################################################


                         Program Version 6.0.1  -  RELEASE   -


 With contributions from (in alphabetic order):
[Max-Planck-Institut fuer Kohlenforschung]                               
  Daniel Aravena         : Magnetic Suceptibility                        
  Michael Atanasov       : Ab Initio Ligand Field Theory (pilot matlab implementation)
  Alexander A. Auer      : GIAO ZORA, VPT2 properties, NMR spectrum      
  Ute Becker             : All parallelization in ORCA, NUMFREQ, NUMCALC 
  Giovanni Bistoni       : ED, misc. LED, open-shell LED, HFLD           
  Martin Brehm           : Molecular dynamics                            
  Dmytro Bykov           : pre 5.0 version of the SCF Hessian            
  Marcos Casanova-Páez   : Triplet and SCS-CIS(D). UHF-(DLPNO)-IP/EA/STEOM-CCSD. UHF-CVS-IP/STEOM-CCSD   
  Vijay G. Chilkuri      : MRCI spin determinant printing, contributions to CSF-ICE 
  Pauline Colinet        : FMM embedding                                 
  Dipayan Datta          : RHF DLPNO-CCSD density                        
  Achintya Kumar Dutta   : EOM-CC, STEOM-CC                              
  Nicolas Foglia         : Exact transition moments, OPA infrastructure, MCD improvements    
  Dmitry Ganyushin       : Spin-Orbit,Spin-Spin,Magnetic field MRCI      
  Miquel Garcia-Rates    : C-PCM and meta-GGA Hessian, CCSD/C-PCM, Gaussian charge scheme 
  Tiago L. C. Gouveia    : GS-ROHF, GS-ROCIS                             
  Yang Guo               : DLPNO-NEVPT2, F12-NEVPT2, CIM, IAO-localization        
  Andreas Hansen         : Spin unrestricted coupled pair/coupled cluster methods 
  Ingolf Harden          : AUTO-CI MPn and infrastructure                
  Benjamin Helmich-Paris : MC-RPA, TRAH-(SCF,CASSCF), AVAS, COSX integrals, SCF dyn. polar. 
  Lee Huntington         : MR-EOM, pCC                                   
  Robert Izsak           : Overlap fitted RIJCOSX, COSX-SCS-MP3, EOM     
  Riya Kayal             : Wick's Theorem for AUTO-CI, AUTO-CI UHF-CCSDT 
  Emily Kempfer          : AUTO-CI, RHF CISDT and CCSDT                  
  Christian Kollmar      : KDIIS, OOCD, Brueckner-CCSD(T), CCSD density, CASPT2, CASPT2-K, improved NEVPT2 
  Axel Koslowski         : Symmetry handling                             
  Simone Kossmann        : meta-GGA functionals, TD-DFT gradient, OOMP2, (MP2 Hessian; deprecated post 5.0) 
  Lucas Lang             : DCDCAS                                        
  Marvin Lechner         : AUTO-CI (C++ implementation), FIC-MRCC        
  Spencer Leger          : CASSCF response                               
  Dagmar Lenk            : GEPOL surface, SMD, ORCA-2-JSON               
  Dimitrios Liakos       : Extrapolation schemes; Compound Job, initial MDCI parallelization 
  Dimitrios Manganas     : Further ROCIS development; embedding schemes. LFT, Crystal Embedding 
  Dimitrios Pantazis     : SARC Basis sets                               
  Anastasios Papadopoulos: AUTO-CI, single reference methods and gradients 
  Taras Petrenko         : pre 6.0 DFT Hessian and TD-DFT gradient, (ASA, deprecated), ECA, 1-Electron XAS/XES, NRVS 
  Peter Pinski           : DLPNO-MP2, DLPNO-MP2 Gradient                 
  Christoph Reimann      : Effective Core Potentials                     
  Marius Retegan         : Local ZFS, SOC                                
  Christoph Riplinger    : Optimizer, TS searches, QM/MM, DLPNO-CCSD(T), (RO)-DLPNO pert. Triples 
  Michael Roemelt        : Original ROCIS implementation                 
  Masaaki Saitow         : Open-shell DLPNO-CCSD energy and density      
  Barbara Sandhoefer     : DKH picture change effects                    
  Kantharuban Sivalingam : CASSCF convergence/infrastructure, NEVPT2 and variants, FIC-MRCI 
  Bernardo de Souza      : ESD, SOC TD-DFT                               
  Georgi L. Stoychev     : AutoAux, RI-MP2 NMR, DLPNO-MP2 response, X2C  
  Van Anh Tran           : RI-MP2 g-tensors                              
  Willem Van den Heuvel  : Paramagnetic NMR                              
  Zikuan Wang            : NOTCH, Electric field optimization            
  Frank Wennmohs         : Technical directorship and infrastructure     
  Hang Xu                : AUTO-CI-Response properties                   
                                                                         
[FACCTs GmbH]                                                            
  Markus Bursch, Miquel Garcia-Rates, Christoph Riplinger, Bernardo de Souza, Georgi L. Stoychev 
                                                                 
  APM, Basis sets (HGBS, AHGBS, def-TZVP (Ac-Lr), def2-XVPD (La-Lu)), CI-OPT, improved COSX, DLPNO-Multilevel,           
  DOCKER, DRACO, updates on ESD, GOAT, IRC, LR-CPCM, MBIS, meta-GGA TD-DFT gradient, ML-optimized integration grids, 
  MM, NACMEs, nearIR, NEB, NEB-TS, NL-DFT gradient (VV10), 2- and 3-layer-ONIOM, interface openCOSMO-RS, QMMM,   
  Crystal-QMMM, SF, symmetry and pop. for TD-DFT, r2SCAN hybrids, SOLVATOR                                   
                                                                         
[Other institutions]                                                     
  V. Asgeirsson          : NEB                                           
  Christoph Bannwarth    : sTDA-DFT, sTD-DFT, PBEh-3c, B97-3c, D3        
  Sebastian Ehlert       : rSCAN, r2SCAN, r2SCAN-3c, D4, dhf basis sets  
  Marvin Friede          : D4 for Fr, Ra, Ac-Lr                          
  Lars Goerigk           : TD-DFT with DH, B97 family of functionals     
  Stefan Grimme          : VdW corrections, initial TS optimization, DFT functionals, gCP, sTDA/sTD-DF 
  Waldemar Hujo          : DFT-NL                                        
  H. Jonsson             : NEB                                           
  Holger Kruse           : gCP                                           
  Marcel Mueller         : wB97X-3c, vDZP basis set                      
  Hagen Neugebauer       : wr2SCAN                                       
  Tobias Risthaus        : range-separated hybrid DFT                    
  Lukas Wittmann         : regularized MP2, r2SCAN double-hybrids, wr2SCAN        
                                                                         
We gratefully acknowledge several colleagues who have allowed us to      
interface, adapt or use parts of their codes:                            
  Ed Valeev, F. Pavosevic, A. Kumar             : LibInt (2-el integral package), F12 methods 
  Garnet Chan, S. Sharma, J. Yang, R. Olivares  : DMRG                   
  Ulf Ekstrom                                   : XCFun DFT Library      
  Mihaly Kallay                                 : mrcc  (arbitrary order and MRCC methods)
  Frank Weinhold                                : gennbo (NPA and NBO analysis)           
  Simon Mueller                                 : openCOSMO-RS                            
  Christopher J. Cramer and Donald G. Truhlar   : smd solvation model                     
  S Lehtola, MJT Oliveira, MAL Marques          : LibXC Library                           
  Liviu Ungur et al                             : ANISO software                          


 Your calculation uses the libint2 library for the computation of 2-el integrals
 For citations please refer to: http://libint.valeyev.net

 Your ORCA version has been built with support for libXC version: 6.2.2
 For citations please refer to: https://libxc.gitlab.io

 This ORCA versions uses:
   CBLAS   interface :  Fast vector & matrix operations
   LAPACKE interface :  Fast linear algebra routines
   SCALAPACK package :  Parallel linear algebra routines
   Shared memory     :  Shared parallel matrices
   BLAS/LAPACK       :  OpenBLAS 0.3.27  USE64BITINT DYNAMIC_ARCH NO_AFFINITY Bulldozer SINGLE_THREADED
        Core in use  :  Bulldozer
   Copyright (c) 2011-2014, The OpenBLAS Project


NOTE: MaxCore=3000 MB was set to SCF,MP2,MDCI,CIPSI,MRCI and CIS
      => If you want to overwrite this, your respective input block should be placed after the MaxCore statement


***************************************
The coordinates will be read from file: start.xyz
***************************************


Your calculation utilizes the atom-pairwise dispersion correction
with the Becke-Johnson damping scheme (D3BJ)


================================================================================

----- Orbital basis set information -----
Your calculation utilizes the basis: def2-SVP
   F. Weigend and R. Ahlrichs, Phys. Chem. Chem. Phys. 7, 3297 (2005).

----- AuxJ basis set information -----
Your calculation utilizes the auxiliary basis: def2/J
   F. Weigend, Phys. Chem. Chem. Phys. 8, 1057 (2006).

================================================================================
                                        WARNINGS
                       Please study these warnings very carefully!
================================================================================


WARNING: Geometry Optimization
  ===> : Switching off AutoStart
         For restart on a previous wavefunction, please use MOREAD

WARNING: The chosen methods will break translational/rotational symmetry
  ===> : Will NOT project out the translational and rotational degrees of freedom
         of the Hessians, in case Hessians are calculated!

WARNING: The chosen methods will break translational symmetry
  ===> : Will NOT exploit translational invariance of the Hessians,
         in case Hessians are calculated!

WARNING: The chosen methods will break translational symmetry
  ===> : Will NOT make the numerical gradients translationally invariant,
         in case numerical gradients are calculated!

================================================================================
                                       INPUT FILE
================================================================================
NAME = job.inp
|  1> ! B3LYP D3BJ def2-SVP def2/J RIJCOSX CPCM TightSCF Opt
|  2> %maxcore 3000
|  3> %pal nprocs 8 end
|  4> %cpcm epsilon 4.0 end
|  5> %scf MaxIter 300 end
|  6> %geom coordsys cartesian end
|  7> %pointcharges "design.pc"
|  8> * xyzfile -2 1 start.xyz
|  9> 
| 10>                          ****END OF INPUT****
================================================================================

                       *****************************
                       * Geometry Optimization Run *
                       *****************************

Geometry optimization settings:
Update method            Update   .... BFGS
Choice of coordinates    CoordSys .... Cartesian
Initial Hessian          InHess   .... Almloef's Model
Max. no of cycles        MaxIter  .... 72

Convergence Tolerances:
Energy Change            TolE     ....  5.0000e-06 Eh
Max. Gradient            TolMAXG  ....  3.0000e-04 Eh/bohr
RMS Gradient             TolRMSG  ....  1.0000e-04 Eh/bohr
Max. Displacement        TolMAXD  ....  4.0000e-03 bohr
RMS Displacement         TolRMSD  ....  2.0000e-03 bohr
Strict Convergence                .... False

------------------------------------------------------------------------------
                        ORCA OPTIMIZATION COORDINATE SETUP
------------------------------------------------------------------------------

The optimization will be done in Cartesian displacement coordinates
Initial hessian                         .... (Almloef)  done
Number of atoms                         .... 24
Number of degrees of freedom            .... 72
Constrained atoms:                      

         *************************************************************
         *                GEOMETRY OPTIMIZATION CYCLE   1            *
         *************************************************************
---------------------------------
CARTESIAN COORDINATES (ANGSTROEM)
---------------------------------
  C     60.111938   34.383969   57.210132
  H     60.607199   33.429939   57.384609
  H     60.724693   35.271818   57.059193
  C     58.780577   34.503532   57.151958
  C     58.092182   35.834261   56.893354
  O     58.812467   36.818218   56.578789
  O     56.839549   35.848917   57.009617
  O     57.934615   33.426403   57.345998
  C     57.676936   32.537732   56.200806
  H     57.019017   31.763769   56.624072
  C     58.986487   31.961840   55.793172
  H     59.463930   31.242983   56.460496
  C     59.683105   32.482671   54.768151
  C     59.064321   33.483709   53.893179
  H     59.702361   33.904544   53.110969
  C     57.781253   33.865659   54.031533
  H     57.332181   34.602354   53.356629
  C     56.889799   33.271093   55.086182
  H     56.347190   34.090648   55.585880
  O     55.962863   32.397707   54.434668
  H     55.310845   32.109527   55.092770
  C     61.123200   32.062126   54.534208
  O     61.784962   31.702328   55.543381
  O     61.541071   32.106513   53.352738

----------------------------
CARTESIAN COORDINATES (A.U.)
----------------------------
  NO LB      ZA    FRAG     MASS         X           Y           Z
   0 C     6.0000    0    12.011  113.595100   64.976285  108.111482
   1 H     1.0000    0     1.008  114.531008   63.173429  108.441195
   2 H     1.0000    0     1.008  114.753039   66.654076  107.826248
   3 C     6.0000    0    12.011  111.079193   65.202226  108.001549
   4 C     6.0000    0    12.011  109.778315   67.716940  107.512858
   5 O     8.0000    0    15.999  111.139456   69.576349  106.918416
   6 O     8.0000    0    15.999  107.411181   67.744635  107.732563
   7 O     8.0000    0    15.999  109.480556   63.166747  108.368231
   8 C     6.0000    0    12.011  108.993613   61.487402  106.204132
   9 H     1.0000    0     1.008  107.750327   60.024824  107.003989
  10 C     6.0000    0    12.011  111.468306   60.399124  105.433815
  11 H     1.0000    0     1.008  112.370543   59.040681  106.694875
  12 C     6.0000    0    12.011  112.784723   61.383352  103.496806
  13 C     6.0000    0    12.011  111.615391   63.275040  101.843349
  14 H     1.0000    0     1.008  112.821112   64.070303  100.365186
  15 C     6.0000    0    12.011  109.190744   63.996821  102.104800
  16 H     1.0000    0     1.008  108.342121   65.388973  100.829416
  17 C     6.0000    0    12.011  107.506140   62.873254  104.097798
  18 H     1.0000    0     1.008  106.480758   64.421988  105.042090
  19 O     8.0000    0    15.999  105.754485   61.222794  102.866615
  20 H     1.0000    0     1.008  104.522349   60.678212  104.110247
  21 C     6.0000    0    12.011  115.506108   60.588637  103.054718
  22 O     8.0000    0    15.999  116.756657   59.908718  104.961779
  23 O     8.0000    0    15.999  116.295770   60.672517  100.822063

--------------------------------
INTERNAL COORDINATES (ANGSTROEM)
--------------------------------
 C      0   0   0     0.000000000000     0.00000000     0.00000000
 H      1   0   0     1.088989863383     0.00000000     0.00000000
 H      1   2   0     1.089278255795   118.71371059     0.00000000
 C      1   2   3     1.337984169400   122.53333633   178.86021439
 C      4   1   2     1.520395795930   122.42129410   180.67352117
 O      5   4   1     1.259338317649   117.86430047     7.98397869
 O      5   4   1     1.258102267780   116.44144955   187.69788882
 O      4   1   2     1.383296826312   122.19798630     1.79734009
 C      8   4   1     1.472276920333   117.90009257   277.32119882
 H      9   8   4     1.100468192492   103.29579790   178.09067811
 C      9   8   4     1.487528451903   107.02309521    60.79280321
 H     11   9   8     1.090884286106   118.21513549    69.64465314
 C     11   9   8     1.344324967754   121.00718757   261.74112609
 C     13  11   9     1.466474246922   120.04938653   349.80769557
 H     14  13  11     1.093640536431   116.31112146   176.92324750
 C     14  13  11     1.345842161786   122.32101579   356.58249340
 H     16  14  13     1.095390612259   121.22306820   181.08159495
 C     16  14  13     1.503490430855   121.67821129   359.07517439
 H     18  16  14     1.102630044988   108.40569783   133.99480188
 O     18  16  14     1.430553719819   107.82773122   252.99945495
 H     20  18  16     0.970192469115   107.93143701   187.73461727
 C     13  11   9     1.518374470708   120.10913882   168.27919774
 O     22  13  11     1.259290947072   117.00532896   331.47810903
 O     22  13  11     1.253976769845   116.83473561   151.49408336

---------------------------
INTERNAL COORDINATES (A.U.)
---------------------------
 C      0   0   0     0.000000000000     0.00000000     0.00000000
 H      1   0   0     2.057892604409     0.00000000     0.00000000
 H      1   2   0     2.058437587087   118.71371059     0.00000000
 C      1   2   3     2.528423651689   122.53333633   178.86021439
 C      4   1   2     2.873131669473   122.42129410   180.67352117
 O      5   4   1     2.379804530310   117.86430047     7.98397869
 O      5   4   1     2.377468734570   116.44144955   187.69788882
 O      4   1   2     2.614052163652   122.19798630     1.79734009
 C      8   4   1     2.782200172723   117.90009257   277.32119882
 H      9   8   4     2.079583502901   103.29579790   178.09067811
 C      9   8   4     2.811021390513   107.02309521    60.79280321
 H     11   9   8     2.061472544539   118.21513549    69.64465314
 C     11   9   8     2.540406024047   121.00718757   261.74112609
 C     13  11   9     2.771234709130   120.04938653   349.80769557
 H     14  13  11     2.066681102809   116.31112146   176.92324750
 C     14  13  11     2.543273105260   122.32101579   356.58249340
 H     16  14  13     2.069988266838   121.22306820   181.08159495
 C     16  14  13     2.841185159288   121.67821129   359.07517439
 H     18  16  14     2.083668812060   108.40569783   133.99480188
 O     18  16  14     2.703354750320   107.82773122   252.99945495
 H     20  18  16     1.833398063821   107.93143701   187.73461727
 C     13  11   9     2.869311918377   120.10913882   168.27919774
 O     22  13  11     2.379715012892   117.00532896   331.47810903
 O     22  13  11     2.369672673306   116.83473561   151.49408336

---------------------
BASIS SET INFORMATION
---------------------
There are 3 groups of distinct atoms

 Group   1 Type C   : 7s4p1d contracted to 3s2p1d pattern {511/31/1}
 Group   2 Type H   : 4s1p contracted to 2s1p pattern {31/1}
 Group   3 Type O   : 7s4p1d contracted to 3s2p1d pattern {511/31/1}

Atom   0C    basis set group =>   1
Atom   1H    basis set group =>   2
Atom   2H    basis set group =>   2
Atom   3C    basis set group =>   1
Atom   4C    basis set group =>   1
Atom   5O    basis set group =>   3
Atom   6O    basis set group =>   3
Atom   7O    basis set group =>   3
Atom   8C    basis set group =>   1
Atom   9H    basis set group =>   2
Atom  10C    basis set group =>   1
Atom  11H    basis set group =>   2
Atom  12C    basis set group =>   1
Atom  13C    basis set group =>   1
Atom  14H    basis set group =>   2
Atom  15C    basis set group =>   1
Atom  16H    basis set group =>   2
Atom  17C    basis set group =>   1
Atom  18H    basis set group =>   2
Atom  19O    basis set group =>   3
Atom  20H    basis set group =>   2
Atom  21C    basis set group =>   1
Atom  22O    basis set group =>   3
Atom  23O    basis set group =>   3
---------------------------------
AUXILIARY/J BASIS SET INFORMATION
---------------------------------
There are 3 groups of distinct atoms

 Group   1 Type C   : 12s5p4d2f1g contracted to 6s4p3d1f1g pattern {711111/2111/211/2/1}
 Group   2 Type H   : 5s2p1d contracted to 3s1p1d pattern {311/2/1}
 Group   3 Type O   : 12s5p4d2f1g contracted to 6s4p3d1f1g pattern {711111/2111/211/2/1}

Atom   0C    basis set group =>   1
Atom   1H    basis set group =>   2
Atom   2H    basis set group =>   2
Atom   3C    basis set group =>   1
Atom   4C    basis set group =>   1
Atom   5O    basis set group =>   3
Atom   6O    basis set group =>   3
Atom   7O    basis set group =>   3
Atom   8C    basis set group =>   1
Atom   9H    basis set group =>   2
Atom  10C    basis set group =>   1
Atom  11H    basis set group =>   2
Atom  12C    basis set group =>   1
Atom  13C    basis set group =>   1
Atom  14H    basis set group =>   2
Atom  15C    basis set group =>   1
Atom  16H    basis set group =>   2
Atom  17C    basis set group =>   1
Atom  18H    basis set group =>   2
Atom  19O    basis set group =>   3
Atom  20H    basis set group =>   2
Atom  21C    basis set group =>   1
Atom  22O    basis set group =>   3
Atom  23O    basis set group =>   3


           ************************************************************
           *        Program running with 8 parallel MPI-processes     *
           *              working on a common directory               *
           ************************************************************
------------------------------------------------------------------------------
                             ORCA STARTUP CALCULATIONS
                           -- RI-GTO INTEGRALS CHOSEN --
------------------------------------------------------------------------------
------------------------------------------------------------------------------
                   ___                                                        
                  /   \      - P O W E R E D   B Y -                         
                 /     \                                                     
                 |  |  |   _    _      __       _____    __    __             
                 |  |  |  | |  | |    /  \     |  _  \  |  |  /  |          
                  \  \/   | |  | |   /    \    | | | |  |  | /  /          
                 / \  \   | |__| |  /  /\  \   | |_| |  |  |/  /          
                |  |  |   |  __  | /  /__\  \  |    /   |      \           
                |  |  |   | |  | | |   __   |  |    \   |  |\   \          
                \     /   | |  | | |  |  |  |  | |\  \  |  | \   \       
                 \___/    |_|  |_| |__|  |__|  |_| \__\ |__|  \__/        
                                                                              
                      - O R C A' S   B I G   F R I E N D -                    
                                      &                                       
                       - I N T E G R A L  F E E D E R -                       
                                                                              
 v1 FN, 2020, v2 2021, v3 2022-2024                                           
------------------------------------------------------------------------------


----------------------
SHARK INTEGRAL PACKAGE
----------------------

Number of atoms                             ...     24
Number of basis functions                   ...    264
Number of shells                            ...    120
Maximum angular momentum                    ...      2
Integral batch strategy                     ... SHARK/LIBINT Hybrid
RI-J (if used) integral strategy            ... SPLIT-RIJ (Revised 2003 algorithm where possible)
Printlevel                                  ...      1
Contraction scheme used                     ... SEGMENTED contraction
Prescreening option                         ... SCHWARTZ
   Thresh                                   ... 2.500e-11
   Tcut                                     ... 2.500e-12
   Tpresel                                  ... 2.500e-12 
Coulomb Range Separation                    ... NOT USED
Exchange Range Separation                   ... NOT USED
Multipole approximations                    ... NOT USED
Finite Nucleus Model                        ... NOT USED
CABS basis                                  ... NOT available
Auxiliary Coulomb fitting basis             ... AVAILABLE
   # of basis functions in Aux-J            ...    872
   # of shells in Aux-J                     ...    280
   Maximum angular momentum in Aux-J        ...      4
Auxiliary J/K fitting basis                 ... NOT available
Auxiliary Correlation fitting basis         ... NOT available
Auxiliary 'external' fitting basis          ... NOT available

Checking pre-screening integrals            ... done (  0.0 sec) Dimension = 120
Check shell pair data                       ... done (  0.0 sec)
Shell pair information
Shell pair cut-off parameter TPreSel        ...   2.5e-12
Total number of shell pairs                 ...      7260
Shell pairs after pre-screening             ...      6312
Total number of primitive shell pairs       ...     27260
Primitive shell pairs kept                  ...     15769
          la=0 lb=0:   1793 shell pairs
          la=1 lb=0:   2271 shell pairs
          la=1 lb=1:    756 shell pairs
          la=2 lb=0:    837 shell pairs
          la=2 lb=1:    551 shell pairs
          la=2 lb=2:    104 shell pairs

Reading point charge file                   ... ok (2 point charges)
Calculating one electron integrals          ... done (  0.0 sec)
Calculating RI/J V-Matrix + Cholesky decomp.... done (  0.6 sec)
Calculating Nuclear repulsion               ... (+Point charges) done (  0.0 sec) ENN=   1113.475957057160 Eh

Diagonalization of the overlap matrix:
Smallest eigenvalue                        ... 4.683e-04
Time for diagonalization                   ...    0.027 sec
Threshold for overlap eigenvalues          ... 1.000e-07
Number of eigenvalues below threshold      ... 0
Time for construction of square roots      ...    0.160 sec
Total time needed                          ...    0.223 sec

-------------------
DFT GRID GENERATION
-------------------

General Integration Accuracy     IntAcc      ... 4.388
Radial Grid Type                 RadialGrid  ... OptM3 with GC (2021)
Angular Grid (max. ang.)         AngularGrid ... 4 (Lebedev-302)
Angular grid pruning method      GridPruning ... 4 (adaptive)
Weight generation scheme         WeightScheme... mBecke (2022)
Basis function cutoff            BFCut       ... 1.0000e-11
Integration weight cutoff        WCut        ... 1.0000e-14
Partially contracted basis set               ... off
Rotationally invariant grid construction     ... off
Angular grids for H and He will be reduced by one unit

Total number of grid points                  ...   121630
Total number of batches                      ...     1912
Average number of points per batch           ...       63
Average number of grid points per atom       ...     5068

--------------------
COSX GRID GENERATION
--------------------

GRIDX 1
-------
General Integration Accuracy     IntAcc      ... 3.816
Radial Grid Type                 RadialGrid  ... OptM3 with GC (2021)
Angular Grid (max. ang.)         AngularGrid ... 1 (Lebedev-50)
Angular grid pruning method      GridPruning ... 4 (adaptive)
Weight generation scheme         WeightScheme... mBecke (2022)
Basis function cutoff            BFCut       ... 1.0000e-11
Integration weight cutoff        WCut        ... 1.0000e-14
Partially contracted basis set               ... on
Rotationally invariant grid construction     ... off
Angular grids for H and He will be reduced by one unit

Total number of grid points                  ...    15403
Total number of batches                      ...      134
Average number of points per batch           ...      114
Average number of grid points per atom       ...      642
UseSFitting                                  ... on

GRIDX 2
-------
General Integration Accuracy     IntAcc      ... 4.020
Radial Grid Type                 RadialGrid  ... OptM3 with GC (2021)
Angular Grid (max. ang.)         AngularGrid ... 2 (Lebedev-110)
Angular grid pruning method      GridPruning ... 4 (adaptive)
Weight generation scheme         WeightScheme... mBecke (2022)
Basis function cutoff            BFCut       ... 1.0000e-11
Integration weight cutoff        WCut        ... 1.0000e-14
Partially contracted basis set               ... on
Rotationally invariant grid construction     ... off
Angular grids for H and He will be reduced by one unit

Total number of grid points                  ...    34411
Total number of batches                      ...      281
Average number of points per batch           ...      122
Average number of grid points per atom       ...     1434
UseSFitting                                  ... on

GRIDX 3
-------
General Integration Accuracy     IntAcc      ... 4.338
Radial Grid Type                 RadialGrid  ... OptM3 with GC (2021)
Angular Grid (max. ang.)         AngularGrid ... 3 (Lebedev-194)
Angular grid pruning method      GridPruning ... 4 (adaptive)
Weight generation scheme         WeightScheme... mBecke (2022)
Basis function cutoff            BFCut       ... 1.0000e-11
Integration weight cutoff        WCut        ... 1.0000e-14
Partially contracted basis set               ... on
Rotationally invariant grid construction     ... off
Angular grids for H and He will be reduced by one unit

Total number of grid points                  ...    75571
Total number of batches                      ...      603
Average number of points per batch           ...      125
Average number of grid points per atom       ...     3149
UseSFitting                                  ... on
Initializing property integral containers    ... done (  0.1 sec)

SHARK setup successfully completed in   7.9 seconds

Maximum memory used throughout the entire STARTUP-calculation: 33.9 MB


           ************************************************************
           *        Program running with 8 parallel MPI-processes     *
           *              working on a common directory               *
           ************************************************************
-------------------------------------------------------------------------------
                                 ORCA GUESS
                   Start orbitals & Density for SCF / CASSCF
-------------------------------------------------------------------------------

------------
SCF SETTINGS
------------
Hamiltonian:
 Density Functional     Method          .... DFT(GTOs)
 Exchange Functional    Exchange        .... B88
   X-Alpha parameter    XAlpha          ....  0.666667
   Becke's b parameter  XBeta           ....  0.004200
 Correlation Functional Correlation     .... LYP
 LDA part of GGA corr.  LDAOpt          .... VWN-5
 Gradients option       PostSCFGGA      .... off
 Hybrid DFT is turned on
   Fraction HF Exchange ScalHFX         ....  0.200000
   Scaling of DF-GGA-X  ScalDFX         ....  0.720000
   Scaling of DF-GGA-C  ScalDFC         ....  0.810000
   Scaling of DF-LDA-C  ScalLDAC        ....  1.000000
   Perturbative correction              ....  0.000000
   NL short-range parameter             ....  4.800000
 RI-approximation to the Coulomb term is turned on
   Number of AuxJ basis functions       .... 872
   RIJ-COSX (HFX calculated with COS-X)).... on


General Settings:
 Integral files         IntName         .... job
 Hartree-Fock type      HFTyp           .... RHF
 Total Charge           Charge          ....   -2
 Multiplicity           Mult            ....    1
 Number of Electrons    NEL             ....  118
 Basis Dimension        Dim             ....  264
 Nuclear Repulsion      ENuc            ....   1113.4759570572 Eh

Convergence Acceleration:
 AO-DIIS                CNVDIIS         .... on
   Start iteration      DIISMaxIt       ....    12
   Startup error        DIISStart       ....  0.200000
   # of expansion vecs  DIISMaxEq       ....     5
   Bias factor          DIISBfac        ....   1.050
   Max. coefficient     DIISMaxC        ....  10.000
 MO-DIIS                CNVKDIIS        .... off
 Trust-Rad. Augm. Hess. CNVTRAH         .... auto
   Auto Start mean grad. ratio tolernc. ....  1.125000
   Auto Start start iteration           ....    50
   Auto Start num. interpolation iter.  ....    10
   Max. Number of Micro iterations      ....    24
   Max. Number of Macro iterations      .... Maxiter - #DIIS iter
   Number of Davidson start vectors     ....     2
   Converg. threshold    (grad. norm)   ....   1.000e-05
   Grad. Scal. Fac. for Micro threshold ....   0.100
   Minimum threshold for Micro iter.    ....   1.000e-02
   NR start threshold (gradient norm)   ....   1.000e-04
   Initial trust radius                 ....   0.400
   Minimum AH scaling param. (alpha)    ....   1.000
   Maximum AH scaling param. (alpha)    .... 1000.000
   Quad. conv. algorithm                .... NR
   White noise on init. David. guess    .... on
   Maximum white noise                  ....   0.010
   Pseudo random numbers                .... off
   Inactive MOs                         .... canonical
   Orbital update algorithm             .... Taylor
   Preconditioner                       .... Diag
   Full preconditioner red. dimension   ....   250
 SOSCF                  CNVSOSCF        .... on
   Start iteration      SOSCFMaxIt      ....   150
   Startup grad/error   SOSCFStart      ....  0.003300
   Hessian update       SOSCFHessUp     .... L-BFGS
 Level Shifting         CNVShift        .... on
   Level shift para.    LevelShift      ....    0.2500
   Turn off err/grad.   ShiftErr        ....    0.0010
 Zerner damping         CNVZerner       .... off
 Static damping         CNVDamp         .... on
   Fraction old density DampFac         ....    0.7000
   Max. Damping (<1)    DampMax         ....    0.9800
   Min. Damping (>=0)   DampMin         ....    0.0000
   Turn off err/grad.   DampErr         ....    0.1000

SCF Procedure:
 Maximum # iterations   MaxIter         ....   300
 SCF integral mode      SCFMode         .... Direct
   Integral package                     .... SHARK and LIBINT hybrid scheme
 Reset frequency        DirectResetFreq ....    20
 Integral Threshold     Thresh          ....  2.500e-11 Eh
 Primitive CutOff       TCut            ....  2.500e-12 Eh

Convergence Tolerance:
 Convergence Check Mode ConvCheckMode   .... Total+1el-Energy
 Convergence forced     ConvForced      .... 0
 Energy Change          TolE            ....  1.000e-08 Eh
 1-El. energy change                    ....  1.000e-05 Eh
 Orbital Gradient       TolG            ....  1.000e-05
 Orbital Rotation angle TolX            ....  1.000e-05
 DIIS Error             TolErr          ....  5.000e-07

------------------------------
INITIAL GUESS: MODEL POTENTIAL
------------------------------
Loading Hartree-Fock densities                     ... done
Calculating cut-offs                               ... done
Initializing the effective Hamiltonian             ... done
Setting up the integral package (SHARK)            ... done
Starting the Coulomb interaction                   ... done (   0.3 sec)
Making the grid                                    ... done (   0.6 sec)
Mapping shells                                     ... done
Starting the XC term evaluation                    ... done (   0.2 sec)
  promolecular density results
     # of electrons  =    115.995184324
     EX              =   -102.842458325
     EC              =     -4.058902881
     EX+EC           =   -106.901361206
Transforming the Hamiltonian                       ... done (   0.0 sec)
Diagonalizing the Hamiltonian                      ... done (   0.0 sec)
Back transforming the eigenvectors                 ... done (   0.0 sec)
Now organizing SCF variables                       ... done
                      ------------------
                      INITIAL GUESS DONE (   1.3 sec)
                      ------------------
             **** ENERGY FILE WAS UPDATED (job.en.tmp) ****
Finished Guess after   2.8 sec
Maximum memory used throughout the entire GUESS-calculation: 20.0 MB


           ************************************************************
           *        Program running with 8 parallel MPI-processes     *
           *              working on a common directory               *
           ************************************************************

-------------------------------------------------------------------------------------------
                                      ORCA LEAN-SCF
                              memory conserving SCF solver
-------------------------------------------------------------------------------------------

--------------------
CPCM SOLVATION MODEL
--------------------
CPCM parameters:
  Epsilon                                         ...       4.0000
  Refrac                                          ...       1.3300
  Rsolv                                           ...       1.3000
  Surface type                                    ... GAUSSIAN VDW
  Discretization scheme                           ... Constant charge density
    Threshold for H atoms                         ...       5.0000 (charges/Ang^2)
    Threshold for non-H atoms                     ...       5.0000 (charges/Ang^2)
  Epsilon function type                           ...         CPCM
Solvent:                                          ... CUSTOM
Radii:
  Scheme                                          ... Element-dependent radii
  Radius for C  used is    3.8550 Bohr (=   2.0400 Ang.)
  Radius for H  used is    2.4944 Bohr (=   1.3200 Ang.)
  Radius for O  used is    3.4469 Bohr (=   1.8240 Ang.)
Calculating surface                               ...        done! (  0.0s)
Cavity surface points                             ...         2123
Cavity Volume                                     ...    1726.4932
Cavity Surface-area                               ...     858.3516
Calculating surface distance matrix               ...        done! (  0.1s)
Performing Cholesky decomposition & store         ...        done! (  1.3s)
Overall time for CPCM initialization              ...                 1.4s

----------------------------------------D-I-I-S--------------------------------------------
Iteration    Energy (Eh)           Delta-E    RMSDP     MaxDP     DIISErr   Damp  Time(sec)
-------------------------------------------------------------------------------------------
               ***  Starting incremental Fock matrix formation  ***
    1    -835.7413776293083174     0.00e+00  4.38e-03  2.03e-01  3.08e-01  0.700   6.5
Warning: op=0 Small HOMO/LUMO gap (   0.079) - skipping pre-diagonalization
         Will do a full diagonalization
    2    -836.0086313697488549    -2.67e-01  3.04e-03  1.46e-01  1.34e-01  0.700   3.9
                               ***Turning on AO-DIIS***
    3    -836.1102981863243713    -1.02e-01  1.19e-03  3.83e-02  4.22e-02  0.700   3.7
    4    -836.1717757625119702    -6.15e-02  1.80e-03  4.68e-02  2.15e-02  0.000   3.7
    5    -836.3077019312245284    -1.36e-01  4.42e-04  1.84e-02  5.88e-03  0.000   3.7
                              *** Initializing SOSCF ***
---------------------------------------S-O-S-C-F--------------------------------------
Iteration    Energy (Eh)           Delta-E    RMSDP     MaxDP     MaxGrad    Time(sec)
--------------------------------------------------------------------------------------
    6    -836.3082897234041866    -5.88e-04  1.41e-04  5.48e-03  1.03e-03     3.4
               *** Restarting incremental Fock matrix formation ***
    7    -836.3083477356049116    -5.80e-05  1.11e-04  3.36e-03  2.48e-04     5.8
    8    -836.3083524392775416    -4.70e-06  3.59e-05  7.67e-04  2.74e-04     4.8
    9    -836.3083567190665235    -4.28e-06  2.97e-05  8.93e-04  1.22e-04     4.4
   10    -836.3083572219297821    -5.03e-07  9.13e-06  3.59e-04  8.20e-05     4.4
   11    -836.3083575195478261    -2.98e-07  8.84e-06  2.61e-04  6.52e-05     4.0
   12    -836.3083575515615848    -3.20e-08  4.12e-06  1.08e-04  4.29e-05     4.0
   13    -836.3083576396109038    -8.80e-08  2.01e-06  4.35e-05  9.09e-06     3.7
   14    -836.3083576373333017     2.28e-09  9.28e-07  2.57e-05  8.60e-06     3.6
                 **** Energy Check signals convergence ****

               *****************************************************
               *                     SUCCESS                       *
               *           SCF CONVERGED AFTER  14 CYCLES          *
               *****************************************************

Recomputing exchange energy using gridx3       ... done (    8.151 sec)
Old exchange energy                            :    -20.890697872 Eh
New exchange energy                            :    -20.890749982 Eh
Exchange energy change after final integration :     -0.000052111 Eh
Total energy after final integration           :   -836.308409748 Eh
             **** ENERGY FILE WAS UPDATED (job.en.tmp) ****

----------------
TOTAL SCF ENERGY
----------------

Total Energy       :       -836.30840974818784 Eh          -22757.10878 eV

Components:
Nuclear Repulsion  :       1113.47595705716026 Eh           30299.22117 eV
Electronic Energy  :      -1949.56403437132167 Eh          -53050.33440 eV
One Electron Energy:      -3391.32949731335520 Eh          -92282.76719 eV
Two Electron Energy:       1441.76546294203354 Eh           39232.43278 eV
CPCM Dielectric    :         -0.22028032317184 Eh              -5.99413 eV

Virial components:
Potential Energy   :      -1665.82539440110054 Eh          -45329.41348 eV
Kinetic Energy     :        829.51698465291270 Eh           22572.30471 eV
Virial Ratio       :          2.00818720438632

DFT components:
N(Alpha)           :       59.000033798329 electrons
N(Beta)            :       59.000033798329 electrons
N(Total)           :      118.000067596658 electrons
E(X)               :      -83.144206752786 Eh       
E(C)               :       -4.848109536580 Eh       
E(XC)              :      -87.992316289366 Eh       

CPCM Solvation Model Properties:
Surface-charge          :          1.98226390499096
Corrected charge        :          2.00000000000000
Outlying charge corr.   :          0.00001504435439 Eh               0.00041 eV
Free-energy (cav+disp)  :  This term is not implemented in the current solvation scheme

---------------
SCF CONVERGENCE
---------------

  Last Energy change         ...   -2.2776e-09  Tolerance :   1.0000e-08
  Last MAX-Density change    ...    2.5735e-05  Tolerance :   1.0000e-07
  Last RMS-Density change    ...    9.2775e-07  Tolerance :   5.0000e-09
  Last DIIS Error            ...    1.0292e-03  Tolerance :   5.0000e-07
  Last Orbital Gradient      ...    8.5996e-06  Tolerance :   1.0000e-05
  Last Orbital Rotation      ...    9.4587e-06  Tolerance :   1.0000e-05


----------------
ORBITAL ENERGIES
----------------

  NO   OCC          E(Eh)            E(eV) 
   0   2.0000     -19.105008      -519.8737 
   1   2.0000     -19.082868      -519.2712 
   2   2.0000     -19.004930      -517.1504 
   3   2.0000     -18.998970      -516.9882 
   4   2.0000     -18.936499      -515.2883 
   5   2.0000     -18.930253      -515.1184 
   6   2.0000     -10.201245      -277.5900 
   7   2.0000     -10.195481      -277.4331 
   8   2.0000     -10.179147      -276.9887 
   9   2.0000     -10.178313      -276.9660 
  10   2.0000     -10.133777      -275.7541 
  11   2.0000     -10.127059      -275.5713 
  12   2.0000     -10.117829      -275.3201 
  13   2.0000     -10.115357      -275.2529 
  14   2.0000     -10.103810      -274.9387 
  15   2.0000     -10.102396      -274.9002 
  16   2.0000      -0.991015       -26.9669 
  17   2.0000      -0.956669       -26.0323 
  18   2.0000      -0.937591       -25.5132 
  19   2.0000      -0.871629       -23.7182 
  20   2.0000      -0.848950       -23.1011 
  21   2.0000      -0.780235       -21.2313 
  22   2.0000      -0.758298       -20.6343 
  23   2.0000      -0.707472       -19.2513 
  24   2.0000      -0.670428       -18.2433 
  25   2.0000      -0.653650       -17.7867 
  26   2.0000      -0.573610       -15.6087 
  27   2.0000      -0.534294       -14.5389 
  28   2.0000      -0.531179       -14.4541 
  29   2.0000      -0.477955       -13.0058 
  30   2.0000      -0.466506       -12.6943 
  31   2.0000      -0.442998       -12.0546 
  32   2.0000      -0.423341       -11.5197 
  33   2.0000      -0.415330       -11.3017 
  34   2.0000      -0.398527       -10.8445 
  35   2.0000      -0.383026       -10.4227 
  36   2.0000      -0.378422       -10.2974 
  37   2.0000      -0.359217        -9.7748 
  38   2.0000      -0.348800        -9.4913 
  39   2.0000      -0.335873        -9.1396 
  40   2.0000      -0.330255        -8.9867 
  41   2.0000      -0.328548        -8.9402 
  42   2.0000      -0.311458        -8.4752 
  43   2.0000      -0.306839        -8.3495 
  44   2.0000      -0.282873        -7.6974 
  45   2.0000      -0.278777        -7.5859 
  46   2.0000      -0.269688        -7.3386 
  47   2.0000      -0.253813        -6.9066 
  48   2.0000      -0.246171        -6.6987 
  49   2.0000      -0.228805        -6.2261 
  50   2.0000      -0.219115        -5.9624 
  51   2.0000      -0.202128        -5.5002 
  52   2.0000      -0.180792        -4.9196 
  53   2.0000      -0.177181        -4.8213 
  54   2.0000      -0.162384        -4.4187 
  55   2.0000      -0.154770        -4.2115 
  56   2.0000      -0.109472        -2.9789 
  57   2.0000      -0.106840        -2.9073 
  58   2.0000      -0.089325        -2.4307 
  59   0.0000       0.022819         0.6209 
  60   0.0000       0.036913         1.0045 
  61   0.0000       0.088088         2.3970 
  62   0.0000       0.124327         3.3831 
  63   0.0000       0.135674         3.6919 
  64   0.0000       0.149884         4.0786 
  65   0.0000       0.159545         4.3414 
  66   0.0000       0.168509         4.5854 
  67   0.0000       0.179300         4.8790 
  68   0.0000       0.208147         5.6640 
  69   0.0000       0.212791         5.7903 
*Only the first 10 virtual orbitals were printed.

                    ********************************
                    * MULLIKEN POPULATION ANALYSIS *
                    ********************************

-----------------------
MULLIKEN ATOMIC CHARGES
-----------------------
   0 C :    0.002535
   1 H :   -0.018855
   2 H :    0.009512
   3 C :   -0.041788
   4 C :    0.071175
   5 O :   -0.412522
   6 O :   -0.447410
   7 O :   -0.438591
   8 C :    0.199519
   9 H :   -0.087290
  10 C :   -0.079209
  11 H :   -0.074528
  12 C :   -0.004430
  13 C :    0.046381
  14 H :   -0.012531
  15 C :   -0.075496
  16 H :   -0.014920
  17 C :    0.246998
  18 H :   -0.037640
  19 O :   -0.329946
  20 H :    0.160648
  21 C :    0.119803
  22 O :   -0.445186
  23 O :   -0.336231
Sum of atomic charges:   -2.0000000

--------------------------------
MULLIKEN REDUCED ORBITAL CHARGES
--------------------------------
  0 C s       :     3.118942  s :     3.118942
      pz      :     1.000009  p :     2.853706
      px      :     0.990112
      py      :     0.863585
      dz2     :     0.001530  d :     0.024817
      dxz     :     0.005590
      dyz     :     0.000602
      dx2y2   :     0.008194
      dxy     :     0.008900

  1 H s       :     0.994510  s :     0.994510
      pz      :     0.004673  p :     0.024345
      px      :     0.006492
      py      :     0.013180

  2 H s       :     0.966077  s :     0.966077
      pz      :     0.004913  p :     0.024411
      px      :     0.007236
      py      :     0.012262

  3 C s       :     3.176320  s :     3.176320
      pz      :     1.025695  p :     2.798373
      px      :     0.878485
      py      :     0.894193
      dz2     :     0.004918  d :     0.067095
      dxz     :     0.010203
      dyz     :     0.006683
      dx2y2   :     0.021042
      dxy     :     0.024249

  4 C s       :     3.035450  s :     3.035450
      pz      :     0.871473  p :     2.754559
      px      :     0.933900
      py      :     0.949186
      dz2     :     0.009424  d :     0.138817
      dxz     :     0.027592
      dyz     :     0.012490
      dx2y2   :     0.043479
      dxy     :     0.045832

  5 O s       :     3.716147  s :     3.716147
      pz      :     1.523617  p :     4.682390
      px      :     1.640425
      py      :     1.518349
      dz2     :     0.001854  d :     0.013985
      dxz     :     0.001640
      dyz     :     0.002924
      dx2y2   :     0.002890
      dxy     :     0.004678

  6 O s       :     3.728870  s :     3.728870
      pz      :     1.567361  p :     4.704957
      px      :     1.346026
      py      :     1.791571
      dz2     :     0.001637  d :     0.013582
      dxz     :     0.003884
      dyz     :     0.000086
      dx2y2   :     0.005170
      dxy     :     0.002805

  7 O s       :     3.727119  s :     3.727119
      pz      :     1.576658  p :     4.697712
      px      :     1.685716
      py      :     1.435338
      dz2     :     0.002887  d :     0.013760
      dxz     :     0.002027
      dyz     :     0.003461
      dx2y2   :     0.001995
      dxy     :     0.003389

  8 C s       :     2.986455  s :     2.986455
      pz      :     0.865419  p :     2.750241
      px      :     1.001933
      py      :     0.882890
      dz2     :     0.011892  d :     0.063785
      dxz     :     0.012773
      dyz     :     0.017547
      dx2y2   :     0.008423
      dxy     :     0.013150

  9 H s       :     1.067194  s :     1.067194
      pz      :     0.003819  p :     0.020096
      px      :     0.007627
      py      :     0.008650

 10 C s       :     3.192557  s :     3.192557
      pz      :     1.003583  p :     2.853842
      px      :     0.908870
      py      :     0.941388
      dz2     :     0.006063  d :     0.032810
      dxz     :     0.008438
      dyz     :     0.006058
      dx2y2   :     0.005637
      dxy     :     0.006614

 11 H s       :     1.051318  s :     1.051318
      pz      :     0.007321  p :     0.023209
      px      :     0.006628
      py      :     0.009260

 12 C s       :     3.143928  s :     3.143928
      pz      :     0.893802  p :     2.819579
      px      :     1.004317
      py      :     0.921459
      dz2     :     0.009039  d :     0.040923
      dxz     :     0.009475
      dyz     :     0.006769
      dx2y2   :     0.007501
      dxy     :     0.008139

 13 C s       :     3.217734  s :     3.217734
      pz      :     0.878273  p :     2.700800
      px      :     0.872565
      py      :     0.949962
      dz2     :     0.004766  d :     0.035085
      dxz     :     0.009476
      dyz     :     0.004730
      dx2y2   :     0.007584
      dxy     :     0.008528

 14 H s       :     0.989459  s :     0.989459
      pz      :     0.009898  p :     0.023072
      px      :     0.008175
      py      :     0.004999

 15 C s       :     3.184367  s :     3.184367
      pz      :     0.957682  p :     2.858284
      px      :     0.957103
      py      :     0.943498
      dz2     :     0.003383  d :     0.032845
      dxz     :     0.010325
      dyz     :     0.004743
      dx2y2   :     0.006521
      dxy     :     0.007873

 16 H s       :     0.992194  s :     0.992194
      pz      :     0.008142  p :     0.022726
      px      :     0.005294
      py      :     0.009289

 17 C s       :     2.936080  s :     2.936080
      pz      :     0.947579  p :     2.748991
      px      :     0.914087
      py      :     0.887325
      dz2     :     0.009229  d :     0.067930
      dxz     :     0.016773
      dyz     :     0.014983
      dx2y2   :     0.010572
      dxy     :     0.016374

 18 H s       :     1.015184  s :     1.015184
      pz      :     0.006815  p :     0.022456
      px      :     0.004920
      py      :     0.010720

 19 O s       :     3.734893  s :     3.734893
      pz      :     1.531111  p :     4.582579
      px      :     1.407482
      py      :     1.643985
      dz2     :     0.001913  d :     0.012475
      dxz     :     0.004889
      dyz     :     0.002908
      dx2y2   :     0.001254
      dxy     :     0.001510

 20 H s       :     0.772406  s :     0.772406
      pz      :     0.022890  p :     0.066946
      px      :     0.024910
      py      :     0.019147

 21 C s       :     3.016286  s :     3.016286
      pz      :     0.922398  p :     2.722106
      px      :     0.911152
      py      :     0.888555
      dz2     :     0.045853  d :     0.141806
      dxz     :     0.042506
      dyz     :     0.033353
      dx2y2   :     0.011619
      dxy     :     0.008473

 22 O s       :     3.733368  s :     3.733368
      pz      :     1.496613  p :     4.698142
      px      :     1.654446
      py      :     1.547083
      dz2     :     0.003094  d :     0.013676
      dxz     :     0.004479
      dyz     :     0.002924
      dx2y2   :     0.001552
      dxy     :     0.001626

 23 O s       :     3.745394  s :     3.745394
      pz      :     1.371873  p :     4.575664
      px      :     1.692736
      py      :     1.511056
      dz2     :     0.005950  d :     0.015173
      dxz     :     0.004208
      dyz     :     0.003814
      dx2y2   :     0.000534
      dxy     :     0.000666



                     *******************************
                     * LOEWDIN POPULATION ANALYSIS *
                     *******************************

----------------------
LOEWDIN ATOMIC CHARGES
----------------------
   0 C :   -0.073642
   1 H :    0.006615
   2 H :    0.024580
   3 C :   -0.047483
   4 C :   -0.064756
   5 O :   -0.388338
   6 O :   -0.409792
   7 O :   -0.218343
   8 C :    0.064883
   9 H :   -0.009722
  10 C :   -0.077456
  11 H :   -0.004156
  12 C :   -0.029215
  13 C :    0.003685
  14 H :    0.031528
  15 C :   -0.056724
  16 H :    0.020327
  17 C :    0.050172
  18 H :   -0.001674
  19 O :   -0.155596
  20 H :    0.069920
  21 C :   -0.036332
  22 O :   -0.399541
  23 O :   -0.298942

-------------------------------
LOEWDIN REDUCED ORBITAL CHARGES
-------------------------------
  0 C s       :     2.894408  s :     2.894408
      pz      :     0.989914  p :     3.111606
      px      :     1.075728
      py      :     1.045963
      dz2     :     0.004905  d :     0.067627
      dxz     :     0.011555
      dyz     :     0.001261
      dx2y2   :     0.023403
      dxy     :     0.026504

  1 H s       :     0.919668  s :     0.919668
      pz      :     0.015629  p :     0.073717
      px      :     0.018611
      py      :     0.039478

  2 H s       :     0.903214  s :     0.903214
      pz      :     0.016007  p :     0.072206
      px      :     0.019810
      py      :     0.036389

  3 C s       :     2.900453  s :     2.900453
      pz      :     0.992781  p :     2.983818
      px      :     1.048679
      py      :     0.942358
      dz2     :     0.012544  d :     0.163211
      dxz     :     0.022043
      dyz     :     0.013993
      dx2y2   :     0.054278
      dxy     :     0.060354

  4 C s       :     2.862682  s :     2.862682
      pz      :     0.858143  p :     2.877783
      px      :     1.011608
      py      :     1.008031
      dz2     :     0.021519  d :     0.324291
      dxz     :     0.056976
      dyz     :     0.026293
      dx2y2   :     0.105990
      dxy     :     0.113512

  5 O s       :     3.571621  s :     3.571621
      pz      :     1.529279  p :     4.791832
      px      :     1.687141
      py      :     1.575411
      dz2     :     0.003405  d :     0.024885
      dxz     :     0.002555
      dyz     :     0.004441
      dx2y2   :     0.004990
      dxy     :     0.009494

  6 O s       :     3.567873  s :     3.567873
      pz      :     1.560336  p :     4.817378
      px      :     1.464415
      py      :     1.792627
      dz2     :     0.003619  d :     0.024541
      dxz     :     0.005239
      dyz     :     0.000119
      dx2y2   :     0.010960
      dxy     :     0.004605

  7 O s       :     3.464343  s :     3.464343
      pz      :     1.581462  p :     4.727403
      px      :     1.686337
      py      :     1.459604
      dz2     :     0.005099  d :     0.026597
      dxz     :     0.003342
      dyz     :     0.007216
      dx2y2   :     0.004254
      dxy     :     0.006685

  8 C s       :     2.866150  s :     2.866150
      pz      :     0.915264  p :     2.918969
      px      :     1.064809
      py      :     0.938896
      dz2     :     0.026921  d :     0.149997
      dxz     :     0.030690
      dyz     :     0.041774
      dx2y2   :     0.018583
      dxy     :     0.032029

  9 H s       :     0.945845  s :     0.945845
      pz      :     0.013877  p :     0.063877
      px      :     0.023317
      py      :     0.026683

 10 C s       :     2.870099  s :     2.870099
      pz      :     1.060401  p :     3.118529
      px      :     1.015747
      py      :     1.042381
      dz2     :     0.015128  d :     0.088828
      dxz     :     0.024496
      dyz     :     0.017085
      dx2y2   :     0.015125
      dxy     :     0.016993

 11 H s       :     0.931264  s :     0.931264
      pz      :     0.022280  p :     0.072892
      px      :     0.022421
      py      :     0.028190

 12 C s       :     2.894038  s :     2.894038
      pz      :     0.998486  p :     3.028689
      px      :     1.074428
      py      :     0.955774
      dz2     :     0.022142  d :     0.106489
      dxz     :     0.025821
      dyz     :     0.018403
      dx2y2   :     0.020286
      dxy     :     0.019835

 13 C s       :     2.872361  s :     2.872361
      pz      :     0.991506  p :     3.032523
      px      :     1.064254
      py      :     0.976763
      dz2     :     0.011975  d :     0.091431
      dxz     :     0.025198
      dyz     :     0.011215
      dx2y2   :     0.020515
      dxy     :     0.022528

 14 H s       :     0.898703  s :     0.898703
      pz      :     0.029454  p :     0.069770
      px      :     0.024468
      py      :     0.015848

 15 C s       :     2.877898  s :     2.877898
      pz      :     1.002734  p :     3.093332
      px      :     1.071151
      py      :     1.019447
      dz2     :     0.009452  d :     0.085494
      dxz     :     0.027049
      dyz     :     0.011259
      dx2y2   :     0.017170
      dxy     :     0.020563

 16 H s       :     0.910889  s :     0.910889
      pz      :     0.025148  p :     0.068784
      px      :     0.015886
      py      :     0.027750

 17 C s       :     2.847731  s :     2.847731
      pz      :     1.018588  p :     2.946983
      px      :     0.960111
      py      :     0.968284
      dz2     :     0.018050  d :     0.155114
      dxz     :     0.042176
      dyz     :     0.036518
      dx2y2   :     0.021303
      dxy     :     0.037067

 18 H s       :     0.927615  s :     0.927615
      pz      :     0.020786  p :     0.074059
      px      :     0.017559
      py      :     0.035714

 19 O s       :     3.459562  s :     3.459562
      pz      :     1.586502  p :     4.672335
      px      :     1.438221
      py      :     1.647612
      dz2     :     0.002420  d :     0.023699
      dxz     :     0.010120
      dyz     :     0.004685
      dx2y2   :     0.002634
      dxy     :     0.003840

 20 H s       :     0.751741  s :     0.751741
      pz      :     0.066569  p :     0.178338
      px      :     0.063219
      py      :     0.048551

 21 C s       :     2.844970  s :     2.844970
      pz      :     1.022731  p :     2.865753
      px      :     0.973409
      py      :     0.869614
      dz2     :     0.113746  d :     0.325609
      dxz     :     0.097831
      dyz     :     0.068178
      dx2y2   :     0.026902
      dxy     :     0.018953

 22 O s       :     3.571527  s :     3.571527
      pz      :     1.573771  p :     4.803489
      px      :     1.677024
      py      :     1.552694
      dz2     :     0.005714  d :     0.024525
      dxz     :     0.009109
      dyz     :     0.004937
      dx2y2   :     0.002217
      dxy     :     0.002547

 23 O s       :     3.576033  s :     3.576033
      pz      :     1.480643  p :     4.696392
      px      :     1.701972
      py      :     1.513776
      dz2     :     0.012065  d :     0.026517
      dxz     :     0.007910
      dyz     :     0.004997
      dx2y2   :     0.000796
      dxy     :     0.000748



                      *****************************
                      * MAYER POPULATION ANALYSIS *
                      *****************************

  NA   - Mulliken gross atomic population
  ZA   - Total nuclear charge
  QA   - Mulliken gross atomic charge
  VA   - Mayer's total valence
  BVA  - Mayer's bonded valence
  FA   - Mayer's free valence

  ATOM       NA         ZA         QA         VA         BVA        FA
  0 C      5.9975     6.0000     0.0025     3.8660     3.8660    -0.0000
  1 H      1.0189     1.0000    -0.0189     1.0510     1.0510    -0.0000
  2 H      0.9905     1.0000     0.0095     1.0173     1.0173    -0.0000
  3 C      6.0418     6.0000    -0.0418     3.8866     3.8866     0.0000
  4 C      5.9288     6.0000     0.0712     4.5130     4.5130     0.0000
  5 O      8.4125     8.0000    -0.4125     2.0892     2.0892     0.0000
  6 O      8.4474     8.0000    -0.4474     2.0172     2.0172     0.0000
  7 O      8.4386     8.0000    -0.4386     2.0062     2.0062     0.0000
  8 C      5.8005     6.0000     0.1995     3.8353     3.8353     0.0000
  9 H      1.0873     1.0000    -0.0873     0.9916     0.9916     0.0000
 10 C      6.0792     6.0000    -0.0792     3.8747     3.8747    -0.0000
 11 H      1.0745     1.0000    -0.0745     1.0331     1.0331    -0.0000
 12 C      6.0044     6.0000    -0.0044     3.7483     3.7483    -0.0000
 13 C      5.9536     6.0000     0.0464     3.9082     3.9082     0.0000
 14 H      1.0125     1.0000    -0.0125     1.0252     1.0252     0.0000
 15 C      6.0755     6.0000    -0.0755     3.8397     3.8397     0.0000
 16 H      1.0149     1.0000    -0.0149     0.9860     0.9860     0.0000
 17 C      5.7530     6.0000     0.2470     3.8942     3.8942     0.0000
 18 H      1.0376     1.0000    -0.0376     1.0712     1.0712     0.0000
 19 O      8.3299     8.0000    -0.3299     2.0536     2.0536     0.0000
 20 H      0.8394     1.0000     0.1606     1.0183     1.0183     0.0000
 21 C      5.8802     6.0000     0.1198     4.4881     4.4881    -0.0000
 22 O      8.4452     8.0000    -0.4452     2.0368     2.0368    -0.0000
 23 O      8.3362     8.0000    -0.3362     2.1579     2.1579    -0.0000

  Mayer bond orders larger than 0.100000
B(  0-C ,  1-H ) :   0.9091 B(  0-C ,  2-H ) :   0.9214 B(  0-C ,  3-C ) :   1.9350 
B(  3-C ,  4-C ) :   0.8397 B(  3-C ,  7-O ) :   1.0364 B(  4-C ,  5-O ) :   1.9015 
B(  4-C ,  6-O ) :   1.7660 B(  5-O ,  6-O ) :   0.1175 B(  6-O , 18-H ) :   0.1039 
B(  7-O ,  8-C ) :   0.8897 B(  8-C ,  9-H ) :   0.8938 B(  8-C , 10-C ) :   0.9952 
B(  8-C , 17-C ) :   0.9602 B( 10-C , 11-H ) :   0.9300 B( 10-C , 12-C ) :   1.7690 
B( 12-C , 13-C ) :   1.0846 B( 12-C , 21-C ) :   0.8293 B( 13-C , 14-H ) :   0.9756 
B( 13-C , 15-C ) :   1.7637 B( 15-C , 16-H ) :   0.9692 B( 15-C , 17-C ) :   0.9793 
B( 17-C , 18-H ) :   0.8862 B( 17-C , 19-O ) :   1.0414 B( 19-O , 20-H ) :   0.9741 
B( 21-C , 22-O ) :   1.7636 B( 21-C , 23-O ) :   1.8949 B( 22-O , 23-O ) :   0.1297 


-------
TIMINGS
-------

Total SCF time: 0 days 0 hours 1 min 11 sec 

Total time                  ....      71.673 sec
Sum of individual times     ....      70.910 sec  ( 98.9%)

SCF preparation             ....       3.233 sec  (  4.5%)
Fock matrix formation       ....      64.590 sec  ( 90.1%)
  Startup                   ....       0.396 sec  (  0.6% of F)
  Split-RI-J                ....       5.973 sec  (  9.2% of F)
  Chain of spheres X        ....      40.361 sec  ( 62.5% of F)
  XC integration            ....       9.524 sec  ( 14.7% of F)
    XC Preparation          ....       0.000 sec  (  0.0% of XC)
    Basis function eval.    ....       2.680 sec  ( 28.1% of XC)
    Density eval.           ....       1.561 sec  ( 16.4% of XC)
    XC-Functional eval.     ....       0.427 sec  (  4.5% of XC)
    XC-Potential eval.      ....       1.551 sec  ( 16.3% of XC)
  CPCM terms                ....       7.112 sec  ( 11.0% of F)
Diagonalization             ....       0.000 sec  (  0.0%)
Density matrix formation    ....       0.635 sec  (  0.9%)
Total Energy calculation    ....       0.321 sec  (  0.4%)
Population analysis         ....       0.181 sec  (  0.3%)
Orbital Transformation      ....       0.206 sec  (  0.3%)
Orbital Orthonormalization  ....       0.000 sec  (  0.0%)
DIIS solution               ....       0.987 sec  (  1.4%)
SOSCF solution              ....       0.756 sec  (  1.1%)
Finished LeanSCF after  72.1 sec

Maximum memory used throughout the entire LEANSCF-calculation: 31.3 MB


-------------------------------------------------------------------------------
                          DFT DISPERSION CORRECTION                            
                                                                               
                              DFTD3 V3.1  Rev 1                                
                          USING Becke-Johnson damping                          
-------------------------------------------------------------------------------
The B3LYP functional is recognized
Active option DFTDOPT                   ...         4   

molecular C6(AA) [au] = 6928.104088 


            DFT-D V3
 parameters
 s6 scaling factor         :     1.0000 
 a1 scaling factor         :     0.3981 
 s8 scaling factor         :     1.9889 
 a2 scaling factor         :     4.4211 
 ad hoc parameters k1-k3   :    16.0000     1.3333    -4.0000 

 Edisp/kcal,au: -33.251947657889  -0.052990345939 
 E6   /kcal   : -15.586009181 
 E8   /kcal   : -17.665938477 
 % E8         :  53.127530028 

-------------------------   ----------------
Dispersion correction           -0.052990346
-------------------------   ----------------


-------------------------   --------------------
FINAL SINGLE POINT ENERGY      -836.361400094127
-------------------------   --------------------



           ************************************************************
           *        Program running with 8 parallel MPI-processes     *
           *              working on a common directory               *
           ************************************************************
------------------------------------------------------------------------------
                         ORCA SCF GRADIENT CALCULATION
------------------------------------------------------------------------------

Nuc. rep. gradient        (SHARK) ... done (  0.0 sec)
HCore & Overlap gradient  (SHARK) ... done (  0.4 sec)
Split-RIJ-J gradient      (SHARK) ... done (  2.4 sec)
COSX-gradient                     ... done ( 21.7 sec)
XC gradient                       ... done (  4.1 sec)
CPCM gradient                     ... done (  1.9 sec)
Point charge gradient             ... done (  0.4 sec)
Dispersion correction             ... done (  0.1 sec)

-------------------
DISPERSION GRADIENT
-------------------

   1   C   :    0.000719142    0.000642678    0.001006688
   2   H   :    0.000343235    0.000112923    0.000431404
   3   H   :    0.000306724    0.000201333    0.000183982
   4   C   :    0.000129305    0.000705807    0.001016869
   5   C   :   -0.000096694    0.001011120    0.000602580
   6   O   :    0.000022034    0.000652276    0.000099441
   7   O   :   -0.000394333    0.000649856    0.000348056
   8   O   :   -0.000220778   -0.000103038    0.000726685
   9   C   :   -0.000488344   -0.000591319    0.000271984
  10   H   :   -0.000272164   -0.000351415    0.000241368
  11   C   :    0.000077888   -0.000904605    0.000174017
  12   H   :    0.000066267   -0.000498013    0.000189466
  13   C   :    0.000584812   -0.000586592   -0.000643492
  14   C   :    0.000142879    0.000085973   -0.001183762
  15   H   :    0.000089918    0.000178324   -0.000388192
  16   C   :   -0.000439355    0.000170891   -0.001146286
  17   H   :   -0.000136263    0.000209483   -0.000391133
  18   C   :   -0.000773235   -0.000250700   -0.000383186
  19   H   :   -0.000489896    0.000073365   -0.000064562
  20   O   :   -0.000669994   -0.000218682   -0.000247196
  21   H   :   -0.000370798   -0.000160784   -0.000048445
  22   C   :    0.000761164   -0.000476256   -0.000418709
  23   O   :    0.000634047   -0.000379091   -0.000042387
  24   O   :    0.000474441   -0.000173533   -0.000335190

Difference to translation invariance:
           :   -0.0000000000    0.0000000000    0.0000000000

Difference to rotation invariance:
           :    0.0000000000    0.0000000000    0.0000000000

Norm of the Dispersion gradient    ...    0.0041598468
RMS gradient                       ...    0.0004902426
MAX gradient                       ...    0.0011837618

------------------
CARTESIAN GRADIENT
------------------

   1   C   :   -0.001716229    0.001660891   -0.007234187
   2   H   :   -0.002187660    0.001989204    0.003871261
   3   H   :    0.000456460   -0.001221204    0.001001463
   4   C   :   -0.000194166    0.000111302   -0.000040239
   5   C   :    0.001531387   -0.021517396    0.009688068
   6   O   :    0.000492329    0.010414299   -0.007229281
   7   O   :    0.006898493    0.002933691   -0.006256476
   8   O   :    0.003421368    0.003020101   -0.014275786
   9   C   :   -0.008122930    0.001180914    0.006945173
  10   H   :    0.004444763    0.000375987   -0.002250762
  11   C   :    0.010217049    0.001502289    0.001989944
  12   H   :   -0.002710696    0.001049479    0.000101030
  13   C   :    0.001829163   -0.001028788   -0.000953001
  14   C   :    0.000249218    0.000633203    0.001874487
  15   H   :   -0.000179480    0.001801293   -0.000283815
  16   C   :   -0.001348207    0.000670935   -0.001499726
  17   H   :   -0.000011876    0.000292489   -0.000805985
  18   C   :    0.000493290   -0.001935633   -0.000385432
  19   H   :    0.000231130   -0.000850049   -0.001932283
  20   O   :    0.000553390    0.004157685   -0.000923897
  21   H   :   -0.001578856   -0.001879811    0.001461742
  22   C   :   -0.030330699    0.008343692    0.021306500
  23   O   :    0.009093679   -0.003793331   -0.015163398
  24   O   :    0.018248903   -0.014015398   -0.012294860

Difference to translation invariance:
           :    0.0097798234   -0.0061041552   -0.0232894577

Difference to rotation invariance:
           :   -0.8842727283    3.6401721591   -1.3589067018

Norm of the Cartesian gradient     ...    0.0623587363
RMS gradient                       ...    0.0073490476
MAX gradient                       ...    0.0303306995

-------
TIMINGS
-------

Total SCF gradient time     ....       31.000 sec

Densities                   ....       0.003 sec  (  0.0%)
One electron gradient       ....       0.413 sec  (  1.3%)
RI-J Coulomb gradient       ....       2.390 sec  (  7.7%)
COSX gradient               ....      21.699 sec  ( 70.0%)
XC gradient                 ....       4.066 sec  ( 13.1%)
CPCM gradient               ....       1.901 sec  (  6.1%)
   A-Matrix (El+Nuc)        ....       0.532 sec  (  1.7%)
   Potential                ....       1.369 sec  (  4.4%)

Maximum memory used throughout the entire SCFGRAD-calculation: 36.0 MB
------------------------------------------------------------------------------
                         ORCA GEOMETRY RELAXATION STEP
------------------------------------------------------------------------------

Reading the OPT-File                    .... done
Number of atoms                         ....  24
Number of degrees of freedom            ....  72
Current Energy                          ....  -836.361400094 Eh
Current gradient norm                   ....     0.062358736 Eh/bohr
Maximum allowed component of the step   ....  0.300
Current trust radius                    ....  0.300
Building the approximate Hessian        .... (Almloef)  done
Building the normal mode matrix         .... done
Forming augmented Hessian.
Diagonalizing augmented Hessian.
Reducing step size.
The input lambda is                     ....    -0.015041
   iter:   5  x=   -0.045740  g=    3.415562 f(x)=     0.002877
The output lambda is                    ....    -0.045762 (8 iterations)
The step size is now                    ....  0.300
Storing new coordinates                 .... done

                                .--------------------.
          ----------------------|Geometry convergence|-------------------------
          Item                value                   Tolerance       Converged
          ---------------------------------------------------------------------
          RMS gradient        0.0073490476            0.0001000000      NO
          MAX gradient        0.0303306995            0.0003000000      NO
          RMS step            0.0353553391            0.0020000000      NO
          MAX step            0.2013013098            0.0040000000      NO
          -------------------------------------------------------------------------

The optimization has not yet converged - more geometry cycles are needed

Geometry step timings:
Preparation and reading OPT file:      0.004 s ( 5.156 %)
Hessian update/contruction      :      0.016 s (20.393 %)
Making the step                 :      0.005 s ( 5.874 %)
Storing new data                :      0.024 s (30.867 %)
Checking convergence            :      0.029 s (37.709 %)
Total time                      :      0.077 s

Time for energy+gradient        :    119.237 s
Time for complete geometry iter :    124.469 s

         *************************************************************
         *                GEOMETRY OPTIMIZATION CYCLE   2            *
         *************************************************************
---------------------------------
CARTESIAN COORDINATES (ANGSTROEM)
---------------------------------
  C     60.103700   34.387198   57.238232
  H     60.608472   33.427051   57.370890
  H     60.713152   35.273484   57.051668
  C     58.768362   34.503252   57.178051
  C     58.070258   35.834620   56.876853
  O     58.807687   36.818943   56.623919
  O     56.820926   35.861382   57.061094
  O     57.929046   33.415684   57.373703
  C     57.675266   32.535285   56.208866
  H     57.003706   31.765283   56.629688
  C     58.972445   31.946296   55.790548
  H     59.460450   31.234622   56.461474
  C     59.679082   32.475882   54.775633
  C     59.064025   33.474487   53.895508
  H     59.702845   33.888325   53.110771
  C     57.784572   33.865381   54.040309
  H     57.335460   34.600891   53.364348
  C     56.890797   33.273049   55.094700
  H     56.345174   34.091776   55.596092
  O     55.971728   32.390618   54.440216
  H     55.310780   32.116168   55.091768
  C     61.122653   32.048326   54.543076
  O     61.775075   31.731808   55.577528
  O     61.543989   32.213037   53.376859

----------------------------
CARTESIAN COORDINATES (A.U.)
----------------------------
  NO LB      ZA    FRAG     MASS         X           Y           Z
   0 C     6.0000    0    12.011  113.579532   64.982386  108.164583
   1 H     1.0000    0     1.008  114.533414   63.167971  108.415271
   2 H     1.0000    0     1.008  114.731231   66.657224  107.812029
   3 C     6.0000    0    12.011  111.056110   65.201696  108.050858
   4 C     6.0000    0    12.011  109.736884   67.717617  107.481676
   5 O     8.0000    0    15.999  111.130424   69.577718  107.003700
   6 O     8.0000    0    15.999  107.375988   67.768192  107.829841
   7 O     8.0000    0    15.999  109.470033   63.146492  108.420585
   8 C     6.0000    0    12.011  108.990457   61.482779  106.219364
   9 H     1.0000    0     1.008  107.721392   60.027685  107.014602
  10 C     6.0000    0    12.011  111.441771   60.369750  105.428857
  11 H     1.0000    0     1.008  112.363967   59.024881  106.696724
  12 C     6.0000    0    12.011  112.777120   61.370524  103.510946
  13 C     6.0000    0    12.011  111.614831   63.257613  101.847750
  14 H     1.0000    0     1.008  112.822026   64.039654  100.364811
  15 C     6.0000    0    12.011  109.197016   63.996295  102.121385
  16 H     1.0000    0     1.008  108.348317   65.386209  100.844003
  17 C     6.0000    0    12.011  107.508027   62.876950  104.113894
  18 H     1.0000    0     1.008  106.476948   64.424120  105.061388
  19 O     8.0000    0    15.999  105.771237   61.209397  102.877099
  20 H     1.0000    0     1.008  104.522227   60.690761  104.108354
  21 C     6.0000    0    12.011  115.505075   60.562559  103.071475
  22 O     8.0000    0    15.999  116.737973   59.964428  105.026306
  23 O     8.0000    0    15.999  116.301284   60.873818  100.867646

[...]
  Refrac                                          ...       1.3300
  Rsolv                                           ...       1.3000
  Surface type                                    ... GAUSSIAN VDW
  Discretization scheme                           ... Constant charge density
    Threshold for H atoms                         ...       5.0000 (charges/Ang^2)
    Threshold for non-H atoms                     ...       5.0000 (charges/Ang^2)
  Epsilon function type                           ...         CPCM
Solvent:                                          ... CUSTOM
Radii:
  Scheme                                          ... Element-dependent radii
  Radius for C  used is    3.8550 Bohr (=   2.0400 Ang.)
  Radius for H  used is    2.4944 Bohr (=   1.3200 Ang.)
  Radius for O  used is    3.4469 Bohr (=   1.8240 Ang.)
Calculating surface                               ...        done! (  0.0s)
Cavity surface points                             ...         2126
Cavity Volume                                     ...    1638.4355
Cavity Surface-area                               ...     874.2017
Calculating surface distance matrix               ...        done! (  0.1s)
Performing Cholesky decomposition & store         ...        done! (  0.5s)
Overall time for CPCM initialization              ...                 0.6s

----------------------------------------D-I-I-S--------------------------------------------
Iteration    Energy (Eh)           Delta-E    RMSDP     MaxDP     DIISErr   Damp  Time(sec)
-------------------------------------------------------------------------------------------
               ***  Starting incremental Fock matrix formation  ***
    1    -836.7449586286747945     0.00e+00  2.56e-04  4.82e-03  2.21e-02  0.700   5.5
    2    -836.7464252823765491    -1.47e-03  2.29e-04  4.28e-03  1.73e-02  0.700   3.1
                               ***Turning on AO-DIIS***
    3    -836.7475681107600849    -1.14e-03  1.82e-04  3.42e-03  1.29e-02  0.700   3.0
    4    -836.7484046292363473    -8.37e-04  4.53e-04  8.42e-03  9.26e-03  0.000   3.0
                              *** Initializing SOSCF ***
---------------------------------------S-O-S-C-F--------------------------------------
Iteration    Energy (Eh)           Delta-E    RMSDP     MaxDP     MaxGrad    Time(sec)
--------------------------------------------------------------------------------------
    5    -836.7504941339250308    -2.09e-03  2.55e-05  6.36e-04  4.96e-04     3.2
               *** Restarting incremental Fock matrix formation ***
    6    -836.7504991150572096    -4.98e-06  3.06e-05  9.02e-04  1.58e-04     5.4
    7    -836.7504983766234545     7.38e-07  1.95e-05  7.25e-04  3.61e-04     3.9
    8    -836.7505012643546252    -2.89e-06  6.69e-06  2.36e-04  3.19e-05     3.8
    9    -836.7505012670162614    -2.66e-09  3.09e-06  1.24e-04  2.74e-05     3.5
                 **** Energy Check signals convergence ****

               *****************************************************
               *                     SUCCESS                       *
               *           SCF CONVERGED AFTER   9 CYCLES          *
               *****************************************************

Recomputing exchange energy using gridx3       ... done (    9.576 sec)
Old exchange energy                            :    -20.907604728 Eh
New exchange energy                            :    -20.907619531 Eh
Exchange energy change after final integration :     -0.000014803 Eh
Total energy after final integration           :   -836.750516070 Eh
             **** ENERGY FILE WAS UPDATED (job.en.tmp) ****

----------------
TOTAL SCF ENERGY
----------------

Total Energy       :       -836.75051607023909 Eh          -22769.13910 eV

Components:
Nuclear Repulsion  :       1100.73587015846101 Eh           29952.54579 eV
Electronic Energy  :      -1937.22584155827258 Eh          -52714.59511 eV
One Electron Energy:      -3355.05337016902149 Eh          -91295.64358 eV
Two Electron Energy:       1417.82752861074891 Eh           38581.04848 eV
CPCM Dielectric    :         -0.26052986720478 Eh              -7.08938 eV

Virial components:
Potential Energy   :      -1666.63803804551480 Eh          -45351.52664 eV
Kinetic Energy     :        829.88752197527560 Eh           22582.38754 eV
Virial Ratio       :          2.00826978827038

DFT components:
N(Alpha)           :       58.999997589750 electrons
N(Beta)            :       58.999997589750 electrons
N(Total)           :      117.999995179500 electrons
E(X)               :      -83.201883253196 Eh       
E(C)               :       -4.848992891329 Eh       
E(XC)              :      -88.050876144524 Eh       

CPCM Solvation Model Properties:
Surface-charge          :          1.98454429023864
Corrected charge        :          2.00000000000000
Outlying charge corr.   :          0.00001124638409 Eh               0.00031 eV
Free-energy (cav+disp)  :  This term is not implemented in the current solvation scheme

---------------
SCF CONVERGENCE
---------------

  Last Energy change         ...    2.6616e-09  Tolerance :   1.0000e-08
  Last MAX-Density change    ...    1.2386e-04  Tolerance :   1.0000e-07
  Last RMS-Density change    ...    3.0917e-06  Tolerance :   5.0000e-09
  Last DIIS Error            ...    4.9564e-04  Tolerance :   5.0000e-07
  Last Orbital Gradient      ...    2.7449e-05  Tolerance :   1.0000e-05
  Last Orbital Rotation      ...    5.0095e-05  Tolerance :   1.0000e-05


Total SCF time: 0 days 0 hours 0 min 46 sec 
Finished LeanSCF after  48.1 sec

Maximum memory used throughout the entire LEANSCF-calculation: 40.0 MB


-------------------------------------------------------------------------------
                          DFT DISPERSION CORRECTION                            
                                                                               
                              DFTD3 V3.1  Rev 1                                
                          USING Becke-Johnson damping                          
-------------------------------------------------------------------------------
-------------------------   ----------------
Dispersion correction           -0.050884913
-------------------------   ----------------


-------------------------   --------------------
FINAL SINGLE POINT ENERGY      -836.801400983694
-------------------------   --------------------



           ************************************************************
           *        Program running with 8 parallel MPI-processes     *
           *              working on a common directory               *
           ************************************************************
------------------------------------------------------------------------------
                         ORCA SCF GRADIENT CALCULATION
------------------------------------------------------------------------------

Nuc. rep. gradient        (SHARK) ... done (  0.0 sec)
HCore & Overlap gradient  (SHARK) ... done (  0.2 sec)
Split-RIJ-J gradient      (SHARK) ... done (  1.5 sec)
COSX-gradient                     ... done ( 19.6 sec)
XC gradient                       ... done (  3.9 sec)
CPCM gradient                     ... done (  1.8 sec)
Point charge gradient             ... done (  0.4 sec)
Dispersion correction             ... done (  0.1 sec)

-------------------
DISPERSION GRADIENT
-------------------

   1   C   :    0.000236858    0.000845368    0.001016052
   2   H   :    0.000281128    0.000279652    0.000306156
   3   H   :    0.000110081    0.000297743    0.000133899
   4   C   :   -0.000180221    0.000293433    0.001130116
   5   C   :   -0.000243491    0.000176924    0.000662885
   6   O   :   -0.000281059    0.000231513    0.000354659
   7   O   :   -0.000218681   -0.000113668    0.000463080
   8   O   :   -0.000084267   -0.000376682    0.000522117
   9   C   :   -0.000145475   -0.000734839   -0.000016681
  10   H   :   -0.000039263   -0.000480291    0.000063860
  11   C   :    0.000507127   -0.000695845   -0.000135447
  12   H   :    0.000324844   -0.000416260    0.000036024
  13   C   :    0.000684796    0.000016236   -0.000654615
  14   C   :   -0.000097947    0.000376015   -0.000971834
  15   H   :   -0.000049101    0.000230744   -0.000324828
  16   C   :   -0.000636538    0.000289585   -0.000835329
  17   H   :   -0.000239143    0.000199016   -0.000238409
  18   C   :   -0.000667794   -0.000315026   -0.000408565
  19   H   :   -0.000506037   -0.000046298   -0.000108384
  20   O   :   -0.000526259   -0.000357269   -0.000236417
  21   H   :   -0.000297782   -0.000236583   -0.000068061
  22   C   :    0.000835343    0.000174335   -0.000373641
  23   O   :    0.000749276    0.000100045   -0.000007121
  24   O   :    0.000483605    0.000262153   -0.000309514

Difference to translation invariance:
           :    0.0000000000    0.0000000000    0.0000000000

Difference to rotation invariance:
           :   -0.0000000000    0.0000000000    0.0000000000

Norm of the Dispersion gradient    ...    0.0037169245
RMS gradient                       ...    0.0004380437
MAX gradient                       ...    0.0011301156

------------------
CARTESIAN GRADIENT
------------------

   1   C   :   -0.004696377    0.000358981    0.001344914
   2   H   :    0.002610889   -0.001756023   -0.000848878
   3   H   :    0.001425908    0.001287205   -0.000196205
   4   C   :    0.000810333   -0.002493618   -0.003376717
   5   C   :   -0.000116330   -0.004067147   -0.004262275
   6   O   :   -0.002990327    0.012104622    0.003228726
   7   O   :    0.001920258   -0.004600372    0.000720686
   8   O   :    0.001415328    0.000407361    0.001274760
   9   C   :    0.001705533   -0.000945197    0.000031470
  10   H   :   -0.000245501    0.001320148   -0.001151394
  11   C   :    0.000809511   -0.001147036    0.000664886
  12   H   :   -0.002773359    0.000239305   -0.000708363
  13   C   :   -0.001068618   -0.000045997   -0.000753207
  14   C   :    0.004298943    0.000037210    0.000700414
  15   H   :    0.000567022    0.001811152   -0.001769124
  16   C   :   -0.001496706   -0.000646200   -0.000569578
  17   H   :    0.000925925    0.000316698   -0.000294745
  18   C   :    0.001520885    0.000729679    0.000579419
  19   H   :   -0.001609417    0.001606217    0.000602679
  20   O   :    0.000113211   -0.001510276   -0.001972742
  21   H   :   -0.002376763   -0.001333390    0.000570474
  22   C   :   -0.000715341    0.001152629   -0.002194853
  23   O   :   -0.000051661   -0.001114737   -0.000859448
  24   O   :   -0.000475318   -0.001728355    0.002189907

Difference to translation invariance:
           :   -0.0004919731   -0.0000171421   -0.0070491936

Difference to rotation invariance:
           :   -0.4610499748    0.7181475409    0.0032899114

Norm of the Cartesian gradient     ...    0.0193581067
RMS gradient                       ...    0.0022813748
MAX gradient                       ...    0.0121046219

-------
TIMINGS
-------

Total SCF gradient time     ....       27.526 sec

Densities                   ....       0.002 sec  (  0.0%)
One electron gradient       ....       0.235 sec  (  0.9%)
RI-J Coulomb gradient       ....       1.469 sec  (  5.3%)
COSX gradient               ....      19.619 sec  ( 71.3%)
XC gradient                 ....       3.914 sec  ( 14.2%)
CPCM gradient               ....       1.773 sec  (  6.4%)
   A-Matrix (El+Nuc)        ....       0.490 sec  (  1.8%)
   Potential                ....       1.283 sec  (  4.7%)

Maximum memory used throughout the entire SCFGRAD-calculation: 35.4 MB
------------------------------------------------------------------------------
                         ORCA GEOMETRY RELAXATION STEP
------------------------------------------------------------------------------

Reading the OPT-File                    .... done
Number of atoms                         ....  24
Number of degrees of freedom            ....  72
Current Energy                          ....  -836.801400984 Eh
Current gradient norm                   ....     0.019358107 Eh/bohr
Maximum allowed component of the step   ....  0.300
Current trust radius                    ....  0.700
Updating the approximate Hessian        .... done
Forming augmented Hessian.
Diagonalizing augmented Hessian.
Reducing step size.
The input lambda is                     ....    -0.002958
   iter:   5  x=   -0.003493  g=  260.770986 f(x)=     0.000000
The output lambda is                    ....    -0.003493 (6 iterations)
The step size is now                    ....  0.700
Storing new coordinates                 .... done
The predicted energy change is          .... -0.002181529
Previously predicted energy change      .... -0.002003593
Actually observed energy change         .... -0.001599610
Ratio of predicted to observed change   .... 0.798370574
New trust radius                        .... 0.700000000

                                .--------------------.
          ----------------------|Geometry convergence|-------------------------
          Item                value                   Tolerance       Converged
          ---------------------------------------------------------------------
          Energy change      -0.0015996097            0.0000050000      NO
          RMS gradient        0.0022813748            0.0001000000      NO
          MAX gradient        0.0121046219            0.0003000000      NO
          RMS step            0.0824957911            0.0020000000      NO
          MAX step            0.2566145324            0.0040000000      NO
          -------------------------------------------------------------------------

The optimization has not yet converged - more geometry cycles are needed

Geometry step timings:
Preparation and reading OPT file:      0.005 s (14.791 %)
Hessian update/contruction      :      0.014 s (45.676 %)
Making the step                 :      0.003 s (11.003 %)
Storing new data                :      0.002 s ( 5.935 %)
Checking convergence            :      0.007 s (22.592 %)
Total time                      :      0.031 s

Time for energy+gradient        :     87.471 s
Time for complete geometry iter :     93.020 s




    ----------------------------------------------------------------------------
                                  WARNING !!!
       The optimization did not converge but reached the maximum number of
       optimization cycles.
       Please check your results very carefully.
    ----------------------------------------------------------------------------



--------------------------------
SUGGESTED CITATIONS FOR THIS RUN
--------------------------------

Below you find a list of papers that are relevant to this ORCA run
We neither can nor want to force you to cite these papers, but we appreciate if you do
You receive ORCA, which is the product of decades of hard work by many enthusiastic individuals, for free
The only thing we kindly ask in return is that you cite our papers,
We deeply appreciate it, if you show your appreciation for ORCA by not just citing the generic ORCA reference.

Please note that relegating all ORCA citations to the supporting information does *not* help us.
SI sections are not indexed - citations you put there will not count into any citation statistics
But we need these citations in order to attract the funding resources that allow us to do what we are doing

Therefore, if you are a happy ORCA user, please consider citing a few of the papers listed below in the main body of your paper

In addition to the list printed below, the program has created the file job.bibtex that contains the list in bibtex format
You can import this file easily into all common literature databanks and citation aid programs


List of essential papers. We consider these as the minimum necessary citations

  1. Neese,F.
     Software update: the ORCA program system, version 5.0
     WIRES Comput. Molec. Sci., 2022 12(1)e1606
     doi.org/10.1002/wcms.1606

List of papers to cite with high priority. The work reported in these papers was absolutely
necessary for this run to complete.
Our perspective: the developers of density functionals and basis sets usually get cited in chemistry papers
Good! But without the algorithms to do something with them, the functionals or basis sets would not do anything.
Hence, in our opinion, the algorithm design and method developments papers are equally worthy of getting cited

  1. Neese,F.
     An improvement of the resolution of the identity approximation for the formation of the Coulomb matrix
     J. Comp. Chem., 2003 24(14)1740-1747
     doi.org/10.1002/jcc.10318
  2. Neese,F.; Wennmohs,F.; Hansen,A.; Becker,U.
     Efficient, approximate and parallel Hartree-Fock and hybrid DFT calculations. A 'chain-of-spheres' algorithm for the Hartree-Fock exchange
     Chem. Phys., 2009 356(1-3)98-109
     doi.org/10.1016/j.chemphys.2008.10.036
  3. Garcia-Rates,M.; Neese,F.
     Effect of the Solute Cavity on the Solvation Energy and its Derivatives within the Framework of the Gaussian Charge Scheme
     J. Comput. Chem., 2020 41 922-939
     doi.org/10.1002/jcc.26139
  4. Helmich-Paris,B.; de Souza,B.; Neese,F.; Izsák,R.
     An improved chain of spheres for exchange algorithm
     J. Chem. Phys., 2021 155 104109
     doi.org/doi: 10.1063/5.0058766.
  5. Neese,F.
     The SHARK Integral Generation and Digestion System
     J. Comp. Chem., 2022  1-16
     doi.org/10.1002/jcc.26942
  6. Grimme,S.; Antony,J.; Ehrlich,S.; Krieg,H.
     A consistent and accurate ab initio parametrization of density functional dispersion correction (DFT-D) for the 94 elements H-Pu
     J. Chem. Phys., 2010 132 154104
     doi.org/10.1063/1.3382344
  7. Grimme,S.; Ehrlich,S.; Goerigk,L.
     Effect of the damping function in dispersion corrected density functional theory
     J. Comput. Chem., 2011 32(7)1456-1465
     doi.org/10.1002/jcc.21759

List of suggested additional citations. These are papers that are important in the 'surrounding' of 
of this run, or papers that preceded the highly important papers. If you like your results we are grateful for a citation.

  1. Izsak,R.; Neese,F.
     An overlap fitted chain of spheres exchange method
     J. Chem. Phys., 2011 135 144105
     doi.org/10.1063/1.3646921
  2. Izsak,R.; Hansen,A.; Neese,F.
     The resolution of identity and chain of spheres approximations for the LPNO-CCSD singles Fock term
     Molec. Phys., 2012 110 2413-2417
     doi.org/10.1080/00268976.2012.687466
  3. Neese,F.
     The ORCA program system
     WIRES Comput. Molec. Sci., 2012 2(1)73-78
     doi.org/10.1002/wcms.81
  4. Izsak,R.; Neese,F.; Klopper,W.
     Robust fitting techniques in the chain of spheres approximation to the Fock exchange: The role of the complementary space
     J. Chem. Phys., 2013 139 
     doi.org/10.1063/1.4819264
  5. Neese,F.
     Software update: the ORCA program system, version 4.0
     WIRES Comput. Molec. Sci., 2018 8(1)1-6
     doi.org/10.1002/wcms.1327
  6. Neese,F.; Wennmohs,F.; Becker,U.; Riplinger,C.
     The ORCA quantum chemistry program package
     J. Chem. Phys., 2020 152 Art. No. L224108
     doi.org/10.1063/5.0004608

List of optional additional citations

  1. Neese,F.
     Approximate second-order SCF convergence for spin unrestricted wavefunctions
     Chem. Phys. Lett., 2000 325(1-3)93-98
     doi.org/10.1016/s0009-2614(00)00662-x

Timings for individual modules:

Sum of individual times          ...     7002.957 sec (= 116.716 min)
Startup calculation              ...      490.963 sec (=   8.183 min)   7.0 %
SCF iterations                   ...     4227.754 sec (=  70.463 min)  60.4 %
SCF Gradient evaluation          ...     2281.528 sec (=  38.025 min)  32.6 %
Geometry relaxation              ...        2.712 sec (=   0.045 min)   0.0 %
                             ****ORCA TERMINATED NORMALLY****
TOTAL RUN TIME: 0 days 2 hours 2 minutes 55 seconds 598 msec
