
                                 *****************
                                 * O   R   C   A *
                                 *****************

                                            #,                                       
                                            ###                                      
                                            ####                                     
                                            #####                                    
                                            ######                                   
                                           ########,                                 
                                     ,,################,,,,,                         
                               ,,#################################,,                 
                          ,,##########################################,,             
                       ,#########################################, ''#####,          
                    ,#############################################,,   '####,        
                  ,##################################################,,,,####,       
                ,###########''''           ''''###############################       
              ,#####''   ,,,,##########,,,,          '''####'''          '####       
            ,##' ,,,,###########################,,,                        '##       
           ' ,,###''''                  '''############,,,                           
         ,,##''                                '''############,,,,        ,,,,,,###''
      ,#''                                            '''#######################'''  
     '                                                          ''''####''''         
             ,#######,   #######,   ,#######,      ##                                
            ,#'     '#,  ##    ##  ,#'     '#,    #''#        ,####,   ,####,        
            ##       ##  ##   ,#'  ##            #'  '#       #'       #'  '#        
            ##       ##  #######   ##           ,######,      #####,   #    #        
            '#,     ,#'  ##    ##  '#,     ,#' ,#      #,     #,   #   #,  ,#        
             '#######'   ##     ##  '#######'  #'      '#     '####' # '####'        



                #########################################################
                #                        -***-                          #
                #          Department of theory and spectroscopy        #
                #                                                       #
                #                      Frank Neese                      #
                #                                                       #
                #     Directorship, Architecture, Infrastructure        #
                #                    SHARK, DRIVERS                     #
                #        Core code/Algorithms in most modules           #
                #                                                       #
                #        Max Planck Institute fuer Kohlenforschung      #
                #                Kaiser Wilhelm Platz 1                 #
                #                 D-45470 Muelheim/Ruhr                 #
                #                      Germany                          #
                #                                                       #
                #                  All rights reserved                  #
                #                        -***-                          #
                #########################################################


                         Program Version 6.0.1  -  RELEASE   -


 With contributions from (in alphabetic order):
[Max-Planck-Institut fuer Kohlenforschung]                               
  Daniel Aravena         : Magnetic Suceptibility                        
  Michael Atanasov       : Ab Initio Ligand Field Theory (pilot matlab implementation)
  Alexander A. Auer      : GIAO ZORA, VPT2 properties, NMR spectrum      
  Ute Becker             : All parallelization in ORCA, NUMFREQ, NUMCALC 
  Giovanni Bistoni       : ED, misc. LED, open-shell LED, HFLD           
  Martin Brehm           : Molecular dynamics                            
  Dmytro Bykov           : pre 5.0 version of the SCF Hessian            
  Marcos Casanova-Páez   : Triplet and SCS-CIS(D). UHF-(DLPNO)-IP/EA/STEOM-CCSD. UHF-CVS-IP/STEOM-CCSD   
  Vijay G. Chilkuri      : MRCI spin determinant printing, contributions to CSF-ICE 
  Pauline Colinet        : FMM embedding                                 
  Dipayan Datta          : RHF DLPNO-CCSD density                        
  Achintya Kumar Dutta   : EOM-CC, STEOM-CC                              
  Nicolas Foglia         : Exact transition moments, OPA infrastructure, MCD improvements    
  Dmitry Ganyushin       : Spin-Orbit,Spin-Spin,Magnetic field MRCI      
  Miquel Garcia-Rates    : C-PCM and meta-GGA Hessian, CCSD/C-PCM, Gaussian charge scheme 
  Tiago L. C. Gouveia    : GS-ROHF, GS-ROCIS                             
  Yang Guo               : DLPNO-NEVPT2, F12-NEVPT2, CIM, IAO-localization        
  Andreas Hansen         : Spin unrestricted coupled pair/coupled cluster methods 
  Ingolf Harden          : AUTO-CI MPn and infrastructure                
  Benjamin Helmich-Paris : MC-RPA, TRAH-(SCF,CASSCF), AVAS, COSX integrals, SCF dyn. polar. 
  Lee Huntington         : MR-EOM, pCC                                   
  Robert Izsak           : Overlap fitted RIJCOSX, COSX-SCS-MP3, EOM     
  Riya Kayal             : Wick's Theorem for AUTO-CI, AUTO-CI UHF-CCSDT 
  Emily Kempfer          : AUTO-CI, RHF CISDT and CCSDT                  
  Christian Kollmar      : KDIIS, OOCD, Brueckner-CCSD(T), CCSD density, CASPT2, CASPT2-K, improved NEVPT2 
  Axel Koslowski         : Symmetry handling                             
  Simone Kossmann        : meta-GGA functionals, TD-DFT gradient, OOMP2, (MP2 Hessian; deprecated post 5.0) 
  Lucas Lang             : DCDCAS                                        
  Marvin Lechner         : AUTO-CI (C++ implementation), FIC-MRCC        
  Spencer Leger          : CASSCF response                               
  Dagmar Lenk            : GEPOL surface, SMD, ORCA-2-JSON               
  Dimitrios Liakos       : Extrapolation schemes; Compound Job, initial MDCI parallelization 
  Dimitrios Manganas     : Further ROCIS development; embedding schemes. LFT, Crystal Embedding 
  Dimitrios Pantazis     : SARC Basis sets                               
  Anastasios Papadopoulos: AUTO-CI, single reference methods and gradients 
  Taras Petrenko         : pre 6.0 DFT Hessian and TD-DFT gradient, (ASA, deprecated), ECA, 1-Electron XAS/XES, NRVS 
  Peter Pinski           : DLPNO-MP2, DLPNO-MP2 Gradient                 
  Christoph Reimann      : Effective Core Potentials                     
  Marius Retegan         : Local ZFS, SOC                                
  Christoph Riplinger    : Optimizer, TS searches, QM/MM, DLPNO-CCSD(T), (RO)-DLPNO pert. Triples 
  Michael Roemelt        : Original ROCIS implementation                 
  Masaaki Saitow         : Open-shell DLPNO-CCSD energy and density      
  Barbara Sandhoefer     : DKH picture change effects                    
  Kantharuban Sivalingam : CASSCF convergence/infrastructure, NEVPT2 and variants, FIC-MRCI 
  Bernardo de Souza      : ESD, SOC TD-DFT                               
  Georgi L. Stoychev     : AutoAux, RI-MP2 NMR, DLPNO-MP2 response, X2C  
  Van Anh Tran           : RI-MP2 g-tensors                              
  Willem Van den Heuvel  : Paramagnetic NMR                              
  Zikuan Wang            : NOTCH, Electric field optimization            
  Frank Wennmohs         : Technical directorship and infrastructure     
  Hang Xu                : AUTO-CI-Response properties                   
                                                                         
[FACCTs GmbH]                                                            
  Markus Bursch, Miquel Garcia-Rates, Christoph Riplinger, Bernardo de Souza, Georgi L. Stoychev 
                                                                 
  APM, Basis sets (HGBS, AHGBS, def-TZVP (Ac-Lr), def2-XVPD (La-Lu)), CI-OPT, improved COSX, DLPNO-Multilevel,           
  DOCKER, DRACO, updates on ESD, GOAT, IRC, LR-CPCM, MBIS, meta-GGA TD-DFT gradient, ML-optimized integration grids, 
  MM, NACMEs, nearIR, NEB, NEB-TS, NL-DFT gradient (VV10), 2- and 3-layer-ONIOM, interface openCOSMO-RS, QMMM,   
  Crystal-QMMM, SF, symmetry and pop. for TD-DFT, r2SCAN hybrids, SOLVATOR                                   
                                                                         
[Other institutions]                                                     
  V. Asgeirsson          : NEB                                           
  Christoph Bannwarth    : sTDA-DFT, sTD-DFT, PBEh-3c, B97-3c, D3        
  Sebastian Ehlert       : rSCAN, r2SCAN, r2SCAN-3c, D4, dhf basis sets  
  Marvin Friede          : D4 for Fr, Ra, Ac-Lr                          
  Lars Goerigk           : TD-DFT with DH, B97 family of functionals     
  Stefan Grimme          : VdW corrections, initial TS optimization, DFT functionals, gCP, sTDA/sTD-DF 
  Waldemar Hujo          : DFT-NL                                        
  H. Jonsson             : NEB                                           
  Holger Kruse           : gCP                                           
  Marcel Mueller         : wB97X-3c, vDZP basis set                      
  Hagen Neugebauer       : wr2SCAN                                       
  Tobias Risthaus        : range-separated hybrid DFT                    
  Lukas Wittmann         : regularized MP2, r2SCAN double-hybrids, wr2SCAN        
                                                                         
We gratefully acknowledge several colleagues who have allowed us to      
interface, adapt or use parts of their codes:                            
  Ed Valeev, F. Pavosevic, A. Kumar             : LibInt (2-el integral package), F12 methods 
  Garnet Chan, S. Sharma, J. Yang, R. Olivares  : DMRG                   
  Ulf Ekstrom                                   : XCFun DFT Library      
  Mihaly Kallay                                 : mrcc  (arbitrary order and MRCC methods)
  Frank Weinhold                                : gennbo (NPA and NBO analysis)           
  Simon Mueller                                 : openCOSMO-RS                            
  Christopher J. Cramer and Donald G. Truhlar   : smd solvation model                     
  S Lehtola, MJT Oliveira, MAL Marques          : LibXC Library                           
  Liviu Ungur et al                             : ANISO software                          


 Your calculation uses the libint2 library for the computation of 2-el integrals
 For citations please refer to: http://libint.valeyev.net

 Your ORCA version has been built with support for libXC version: 6.2.2
 For citations please refer to: https://libxc.gitlab.io

 This ORCA versions uses:
   CBLAS   interface :  Fast vector & matrix operations
   LAPACKE interface :  Fast linear algebra routines
   SCALAPACK package :  Parallel linear algebra routines
   Shared memory     :  Shared parallel matrices
   BLAS/LAPACK       :  OpenBLAS 0.3.27  USE64BITINT DYNAMIC_ARCH NO_AFFINITY Bulldozer SINGLE_THREADED
        Core in use  :  Bulldozer
   Copyright (c) 2011-2014, The OpenBLAS Project


NOTE: MaxCore=3000 MB was set to SCF,MP2,MDCI,CIPSI,MRCI and CIS
      => If you want to overwrite this, your respective input block should be placed after the MaxCore statement


***************************************
The coordinates will be read from file: start.xyz
***************************************


Your calculation utilizes the atom-pairwise dispersion correction
with the Becke-Johnson damping scheme (D3BJ)


================================================================================

----- Orbital basis set information -----
Your calculation utilizes the basis: def2-SVP
   F. Weigend and R. Ahlrichs, Phys. Chem. Chem. Phys. 7, 3297 (2005).

----- AuxJ basis set information -----
Your calculation utilizes the auxiliary basis: def2/J
   F. Weigend, Phys. Chem. Chem. Phys. 8, 1057 (2006).

================================================================================
                                        WARNINGS
                       Please study these warnings very carefully!
================================================================================


WARNING: Geometry Optimization
  ===> : Switching off AutoStart
         For restart on a previous wavefunction, please use MOREAD

WARNING: The chosen methods will break translational/rotational symmetry
  ===> : Will NOT project out the translational and rotational degrees of freedom
         of the Hessians, in case Hessians are calculated!

WARNING: The chosen methods will break translational symmetry
  ===> : Will NOT exploit translational invariance of the Hessians,
         in case Hessians are calculated!

WARNING: The chosen methods will break translational symmetry
  ===> : Will NOT make the numerical gradients translationally invariant,
         in case numerical gradients are calculated!

================================================================================
                                       INPUT FILE
================================================================================
NAME = job.inp
|  1> ! B3LYP D3BJ def2-SVP def2/J RIJCOSX CPCM TightSCF Opt
|  2> %maxcore 3000
|  3> %pal nprocs 8 end
|  4> %cpcm epsilon 4.0 end
|  5> %scf MaxIter 300 end
|  6> %geom coordsys cartesian end
|  7> %pointcharges "design.pc"
|  8> * xyzfile -2 1 start.xyz
|  9> 
| 10>                          ****END OF INPUT****
================================================================================

                       *****************************
                       * Geometry Optimization Run *
                       *****************************

Geometry optimization settings:
Update method            Update   .... BFGS
Choice of coordinates    CoordSys .... Cartesian
Initial Hessian          InHess   .... Almloef's Model
Max. no of cycles        MaxIter  .... 72

Convergence Tolerances:
Energy Change            TolE     ....  5.0000e-06 Eh
Max. Gradient            TolMAXG  ....  3.0000e-04 Eh/bohr
RMS Gradient             TolRMSG  ....  1.0000e-04 Eh/bohr
Max. Displacement        TolMAXD  ....  4.0000e-03 bohr
RMS Displacement         TolRMSD  ....  2.0000e-03 bohr
Strict Convergence                .... False

------------------------------------------------------------------------------
                        ORCA OPTIMIZATION COORDINATE SETUP
------------------------------------------------------------------------------

The optimization will be done in Cartesian displacement coordinates
Initial hessian                         .... (Almloef)  done
Number of atoms                         .... 24
Number of degrees of freedom            .... 72
Constrained atoms:                      

         *************************************************************
         *                GEOMETRY OPTIMIZATION CYCLE   1            *
         *************************************************************
---------------------------------
CARTESIAN COORDINATES (ANGSTROEM)
---------------------------------
  C     60.092356   34.056984   56.354594
  H     60.757862   33.544930   57.062775
  H     60.607676   34.925793   55.921397
  C     58.844721   34.465867   57.095841
  C     58.158936   35.830179   56.839235
  O     58.893519   36.799815   56.528907
  O     56.917200   35.847731   56.992850
  O     58.307613   33.702214   57.875302
  C     57.548698   31.938147   55.699735
  H     56.940391   31.183730   56.203549
  C     58.878432   31.920015   55.800043
  H     59.399305   31.165241   56.389488
  C     59.744487   33.008977   55.219846
  C     59.028550   33.707589   54.087981
  H     59.670812   34.192743   53.346365
  C     57.695381   33.716804   53.971810
  H     57.195032   34.246401   53.154887
  C     56.810468   33.035130   54.981426
  H     56.513401   33.810335   55.714955
  O     55.640479   32.543634   54.338392
  H     55.032504   32.220885   55.020192
  C     61.077105   32.332661   54.739361
  O     61.765259   31.766738   55.625475
  O     61.336808   32.358221   53.517478

----------------------------
CARTESIAN COORDINATES (A.U.)
----------------------------
  NO LB      ZA    FRAG     MASS         X           Y           Z
   0 C     6.0000    0    12.011  113.558096   64.358373  106.494749
   1 H     1.0000    0     1.008  114.815720   63.390731  107.833017
   2 H     1.0000    0     1.008  114.531909   66.000184  105.676125
   3 C     6.0000    0    12.011  111.200407   65.131050  107.895503
   4 C     6.0000    0    12.011  109.904461   67.709226  107.410588
   5 O     8.0000    0    15.999  111.292622   69.541572  106.824153
   6 O     8.0000    0    15.999  107.557920   67.742394  107.700878
   7 O     8.0000    0    15.999  110.185420   63.687955  109.368471
   8 C     6.0000    0    12.011  108.751279   60.354351  105.257245
   9 H     1.0000    0     1.008  107.601745   58.928710  106.209315
  10 C     6.0000    0    12.011  111.264112   60.320087  105.446800
  11 H     1.0000    0     1.008  112.248419   58.893770  106.560689
  12 C     6.0000    0    12.011  112.900718   62.377926  104.350386
  13 C     6.0000    0    12.011  111.547794   63.698112  102.211471
  14 H     1.0000    0     1.008  112.761493   64.614920  100.810020
  15 C     6.0000    0    12.011  109.028469   63.715526  101.991940
  16 H     1.0000    0     1.008  108.082947   64.716319  100.448179
  17 C     6.0000    0    12.011  107.356226   62.427348  103.899838
  18 H     1.0000    0     1.008  106.794851   63.892274  105.286007
  19 O     8.0000    0    15.999  105.145267   61.498556  102.684679
  20 H     1.0000    0     1.008  103.996361   60.888648  103.973095
  21 C     6.0000    0    12.011  115.419002   61.099874  103.442401
  22 O     8.0000    0    15.999  116.719424   60.030435  105.116914
  23 O     8.0000    0    15.999  115.909769   61.148176  101.133377

--------------------------------
INTERNAL COORDINATES (ANGSTROEM)
--------------------------------
 C      0   0   0     0.000000000000     0.00000000     0.00000000
 H      1   0   0     1.098461589548     0.00000000     0.00000000
 H      1   2   0     1.099110286409   109.78698018     0.00000000
 C      1   2   3     1.507721962407   108.10754442   238.10179376
 C      4   1   2     1.548384622374   121.59948918   140.32174127
 O      5   4   1     1.255432046735   117.53864483   327.72138291
 O      5   4   1     1.251324871736   115.56432106   149.08715400
 O      4   1   2     1.216227922140   120.67977853   316.90378392
 C      8   4   1     2.901891819004    90.95760493   292.24654346
 H      9   8   4     1.092250412101   102.69242948   185.09396939
 C      9   8   4     1.333635248126    72.00809656    66.55081892
 H     11   9   8     1.090154980372   121.76798256    93.77119460
 C     11   9   8     1.507487333041   122.27966865   279.72805629
 C     13  11   9     1.510543906260   110.49891247   335.78526542
 H     14  13  11     1.094472097322   115.76072218   204.77637574
 C     14  13  11     1.338252666736   122.71019010    23.42569354
 H     16  14  13     1.094616504598   121.56601137   178.73505662
 C      9   8   4     1.504766777501    92.46532995   303.25113900
 H     18   9   8     1.107816044456   109.00241103   336.40747277
 O     18   9   8     1.422650801600   111.55365888   216.37505157
 H     20  18   9     0.968840419071   108.24531154    64.09239291
 C     13  11   9     1.569757911592   107.11519686   213.71427063
 O     22  13  11     1.256591735864   116.30152023   298.78179007
 O     22  13  11     1.249438684969   117.83841463   116.20229709

---------------------------
INTERNAL COORDINATES (A.U.)
---------------------------
 C      0   0   0     0.000000000000     0.00000000     0.00000000
 H      1   0   0     2.075791572878     0.00000000     0.00000000
 H      1   2   0     2.077017432289   109.78698018     0.00000000
 C      1   2   3     2.849181595047   108.10754442   238.10179376
 C      4   1   2     2.926022886262   121.59948918   140.32174127
 O      5   4   1     2.372422748077   117.53864483   327.72138291
 O      5   4   1     2.364661312145   115.56432106   149.08715400
 O      4   1   2     2.298337689273   120.67977853   316.90378392
 C      8   4   1     5.483780808184    90.95760493   292.24654346
 H      9   8   4     2.064054148533   102.69242948   185.09396939
 C      9   8   4     2.520205381502    72.00809656    66.55081892
 H     11   9   8     2.060094356433   121.76798256    93.77119460
 C     11   9   8     2.848738209802   122.27966865   279.72805629
 C     13  11   9     2.854514296094   110.49891247   335.78526542
 H     14  13  11     2.068252525157   115.76072218   204.77637574
 C     14  13  11     2.528931038122   122.71019010    23.42569354
 H     16  14  13     2.068525415361   121.56601137   178.73505662
 C      9   8   4     2.843597104900    92.46532995   303.25113900
 H     18   9   8     2.093468930787   109.00241103   336.40747277
 O     18   9   8     2.688420399227   111.55365888   216.37505157
 H     20  18   9     1.830843059518   108.24531154    64.09239291
 C     13  11   9     2.966412549465   107.11519686   213.71427063
 O     22  13  11     2.374614242931   116.30152023   298.78179007
 O     22  13  11     2.361096935719   117.83841463   116.20229709

---------------------
BASIS SET INFORMATION
---------------------
There are 3 groups of distinct atoms

 Group   1 Type C   : 7s4p1d contracted to 3s2p1d pattern {511/31/1}
 Group   2 Type H   : 4s1p contracted to 2s1p pattern {31/1}
 Group   3 Type O   : 7s4p1d contracted to 3s2p1d pattern {511/31/1}

Atom   0C    basis set group =>   1
Atom   1H    basis set group =>   2
Atom   2H    basis set group =>   2
Atom   3C    basis set group =>   1
Atom   4C    basis set group =>   1
Atom   5O    basis set group =>   3
Atom   6O    basis set group =>   3
Atom   7O    basis set group =>   3
Atom   8C    basis set group =>   1
Atom   9H    basis set group =>   2
Atom  10C    basis set group =>   1
Atom  11H    basis set group =>   2
Atom  12C    basis set group =>   1
Atom  13C    basis set group =>   1
Atom  14H    basis set group =>   2
Atom  15C    basis set group =>   1
Atom  16H    basis set group =>   2
Atom  17C    basis set group =>   1
Atom  18H    basis set group =>   2
Atom  19O    basis set group =>   3
Atom  20H    basis set group =>   2
Atom  21C    basis set group =>   1
Atom  22O    basis set group =>   3
Atom  23O    basis set group =>   3
---------------------------------
AUXILIARY/J BASIS SET INFORMATION
---------------------------------
There are 3 groups of distinct atoms

 Group   1 Type C   : 12s5p4d2f1g contracted to 6s4p3d1f1g pattern {711111/2111/211/2/1}
 Group   2 Type H   : 5s2p1d contracted to 3s1p1d pattern {311/2/1}
 Group   3 Type O   : 12s5p4d2f1g contracted to 6s4p3d1f1g pattern {711111/2111/211/2/1}

Atom   0C    basis set group =>   1
Atom   1H    basis set group =>   2
Atom   2H    basis set group =>   2
Atom   3C    basis set group =>   1
Atom   4C    basis set group =>   1
Atom   5O    basis set group =>   3
Atom   6O    basis set group =>   3
Atom   7O    basis set group =>   3
Atom   8C    basis set group =>   1
Atom   9H    basis set group =>   2
Atom  10C    basis set group =>   1
Atom  11H    basis set group =>   2
Atom  12C    basis set group =>   1
Atom  13C    basis set group =>   1
Atom  14H    basis set group =>   2
Atom  15C    basis set group =>   1
Atom  16H    basis set group =>   2
Atom  17C    basis set group =>   1
Atom  18H    basis set group =>   2
Atom  19O    basis set group =>   3
Atom  20H    basis set group =>   2
Atom  21C    basis set group =>   1
Atom  22O    basis set group =>   3
Atom  23O    basis set group =>   3


           ************************************************************
           *        Program running with 8 parallel MPI-processes     *
           *              working on a common directory               *
           ************************************************************
------------------------------------------------------------------------------
                             ORCA STARTUP CALCULATIONS
                           -- RI-GTO INTEGRALS CHOSEN --
------------------------------------------------------------------------------
------------------------------------------------------------------------------
                   ___                                                        
                  /   \      - P O W E R E D   B Y -                         
                 /     \                                                     
                 |  |  |   _    _      __       _____    __    __             
                 |  |  |  | |  | |    /  \     |  _  \  |  |  /  |          
                  \  \/   | |  | |   /    \    | | | |  |  | /  /          
                 / \  \   | |__| |  /  /\  \   | |_| |  |  |/  /          
                |  |  |   |  __  | /  /__\  \  |    /   |      \           
                |  |  |   | |  | | |   __   |  |    \   |  |\   \          
                \     /   | |  | | |  |  |  |  | |\  \  |  | \   \       
                 \___/    |_|  |_| |__|  |__|  |_| \__\ |__|  \__/        
                                                                              
                      - O R C A' S   B I G   F R I E N D -                    
                                      &                                       
                       - I N T E G R A L  F E E D E R -                       
                                                                              
 v1 FN, 2020, v2 2021, v3 2022-2024                                           
------------------------------------------------------------------------------


----------------------
SHARK INTEGRAL PACKAGE
----------------------

Number of atoms                             ...     24
Number of basis functions                   ...    264
Number of shells                            ...    120
Maximum angular momentum                    ...      2
Integral batch strategy                     ... SHARK/LIBINT Hybrid
RI-J (if used) integral strategy            ... SPLIT-RIJ (Revised 2003 algorithm where possible)
Printlevel                                  ...      1
Contraction scheme used                     ... SEGMENTED contraction
Prescreening option                         ... SCHWARTZ
   Thresh                                   ... 2.500e-11
   Tcut                                     ... 2.500e-12
   Tpresel                                  ... 2.500e-12 
Coulomb Range Separation                    ... NOT USED
Exchange Range Separation                   ... NOT USED
Multipole approximations                    ... NOT USED
Finite Nucleus Model                        ... NOT USED
CABS basis                                  ... NOT available
Auxiliary Coulomb fitting basis             ... AVAILABLE
   # of basis functions in Aux-J            ...    872
   # of shells in Aux-J                     ...    280
   Maximum angular momentum in Aux-J        ...      4
Auxiliary J/K fitting basis                 ... NOT available
Auxiliary Correlation fitting basis         ... NOT available
Auxiliary 'external' fitting basis          ... NOT available

Checking pre-screening integrals            ... done (  0.0 sec) Dimension = 120
Check shell pair data                       ... done (  0.0 sec)
Shell pair information
Shell pair cut-off parameter TPreSel        ...   2.5e-12
Total number of shell pairs                 ...      7260
Shell pairs after pre-screening             ...      6310
Total number of primitive shell pairs       ...     27260
Primitive shell pairs kept                  ...     15842
          la=0 lb=0:   1790 shell pairs
          la=1 lb=0:   2268 shell pairs
          la=1 lb=1:    755 shell pairs
          la=2 lb=0:    837 shell pairs
          la=2 lb=1:    552 shell pairs
          la=2 lb=2:    108 shell pairs

Reading point charge file                   ... ok (1 point charges)
Calculating one electron integrals          ... done (  0.0 sec)
Calculating RI/J V-Matrix + Cholesky decomp.... done (  0.8 sec)
Calculating Nuclear repulsion               ... (+Point charges) done (  0.0 sec) ENN=   1107.664310430142 Eh

Diagonalization of the overlap matrix:
Smallest eigenvalue                        ... 3.936e-04
Time for diagonalization                   ...    0.030 sec
Threshold for overlap eigenvalues          ... 1.000e-07
Number of eigenvalues below threshold      ... 0
Time for construction of square roots      ...    0.031 sec
Total time needed                          ...    0.138 sec

-------------------
DFT GRID GENERATION
-------------------

General Integration Accuracy     IntAcc      ... 4.388
Radial Grid Type                 RadialGrid  ... OptM3 with GC (2021)
Angular Grid (max. ang.)         AngularGrid ... 4 (Lebedev-302)
Angular grid pruning method      GridPruning ... 4 (adaptive)
Weight generation scheme         WeightScheme... mBecke (2022)
Basis function cutoff            BFCut       ... 1.0000e-11
Integration weight cutoff        WCut        ... 1.0000e-14
Partially contracted basis set               ... off
Rotationally invariant grid construction     ... off
Angular grids for H and He will be reduced by one unit

Total number of grid points                  ...   121513
Total number of batches                      ...     1913
Average number of points per batch           ...       63
Average number of grid points per atom       ...     5063

--------------------
COSX GRID GENERATION
--------------------

GRIDX 1
-------
General Integration Accuracy     IntAcc      ... 3.816
Radial Grid Type                 RadialGrid  ... OptM3 with GC (2021)
Angular Grid (max. ang.)         AngularGrid ... 1 (Lebedev-50)
Angular grid pruning method      GridPruning ... 4 (adaptive)
Weight generation scheme         WeightScheme... mBecke (2022)
Basis function cutoff            BFCut       ... 1.0000e-11
Integration weight cutoff        WCut        ... 1.0000e-14
Partially contracted basis set               ... on
Rotationally invariant grid construction     ... off
Angular grids for H and He will be reduced by one unit

Total number of grid points                  ...    15380
Total number of batches                      ...      133
Average number of points per batch           ...      115
Average number of grid points per atom       ...      641
UseSFitting                                  ... on

GRIDX 2
-------
General Integration Accuracy     IntAcc      ... 4.020
Radial Grid Type                 RadialGrid  ... OptM3 with GC (2021)
Angular Grid (max. ang.)         AngularGrid ... 2 (Lebedev-110)
Angular grid pruning method      GridPruning ... 4 (adaptive)
Weight generation scheme         WeightScheme... mBecke (2022)
Basis function cutoff            BFCut       ... 1.0000e-11
Integration weight cutoff        WCut        ... 1.0000e-14
Partially contracted basis set               ... on
Rotationally invariant grid construction     ... off
Angular grids for H and He will be reduced by one unit

Total number of grid points                  ...    34374
Total number of batches                      ...      283
Average number of points per batch           ...      121
Average number of grid points per atom       ...     1432
UseSFitting                                  ... on

GRIDX 3
-------
General Integration Accuracy     IntAcc      ... 4.338
Radial Grid Type                 RadialGrid  ... OptM3 with GC (2021)
Angular Grid (max. ang.)         AngularGrid ... 3 (Lebedev-194)
Angular grid pruning method      GridPruning ... 4 (adaptive)
Weight generation scheme         WeightScheme... mBecke (2022)
Basis function cutoff            BFCut       ... 1.0000e-11
Integration weight cutoff        WCut        ... 1.0000e-14
Partially contracted basis set               ... on
Rotationally invariant grid construction     ... off
Angular grids for H and He will be reduced by one unit

Total number of grid points                  ...    75498
Total number of batches                      ...      602
Average number of points per batch           ...      125
Average number of grid points per atom       ...     3146
UseSFitting                                  ... on
Initializing property integral containers    ... done (  0.1 sec)

SHARK setup successfully completed in   7.9 seconds

Maximum memory used throughout the entire STARTUP-calculation: 34.0 MB


           ************************************************************
           *        Program running with 8 parallel MPI-processes     *
           *              working on a common directory               *
           ************************************************************
-------------------------------------------------------------------------------
                                 ORCA GUESS
                   Start orbitals & Density for SCF / CASSCF
-------------------------------------------------------------------------------

------------
SCF SETTINGS
------------
Hamiltonian:
 Density Functional     Method          .... DFT(GTOs)
 Exchange Functional    Exchange        .... B88
   X-Alpha parameter    XAlpha          ....  0.666667
   Becke's b parameter  XBeta           ....  0.004200
 Correlation Functional Correlation     .... LYP
 LDA part of GGA corr.  LDAOpt          .... VWN-5
 Gradients option       PostSCFGGA      .... off
 Hybrid DFT is turned on
   Fraction HF Exchange ScalHFX         ....  0.200000
   Scaling of DF-GGA-X  ScalDFX         ....  0.720000
   Scaling of DF-GGA-C  ScalDFC         ....  0.810000
   Scaling of DF-LDA-C  ScalLDAC        ....  1.000000
   Perturbative correction              ....  0.000000
   NL short-range parameter             ....  4.800000
 RI-approximation to the Coulomb term is turned on
   Number of AuxJ basis functions       .... 872
   RIJ-COSX (HFX calculated with COS-X)).... on


General Settings:
 Integral files         IntName         .... job
 Hartree-Fock type      HFTyp           .... RHF
 Total Charge           Charge          ....   -2
 Multiplicity           Mult            ....    1
 Number of Electrons    NEL             ....  118
 Basis Dimension        Dim             ....  264
 Nuclear Repulsion      ENuc            ....   1107.6643104301 Eh

Convergence Acceleration:
 AO-DIIS                CNVDIIS         .... on
   Start iteration      DIISMaxIt       ....    12
   Startup error        DIISStart       ....  0.200000
   # of expansion vecs  DIISMaxEq       ....     5
   Bias factor          DIISBfac        ....   1.050
   Max. coefficient     DIISMaxC        ....  10.000
 MO-DIIS                CNVKDIIS        .... off
 Trust-Rad. Augm. Hess. CNVTRAH         .... auto
   Auto Start mean grad. ratio tolernc. ....  1.125000
   Auto Start start iteration           ....    50
   Auto Start num. interpolation iter.  ....    10
   Max. Number of Micro iterations      ....    24
   Max. Number of Macro iterations      .... Maxiter - #DIIS iter
   Number of Davidson start vectors     ....     2
   Converg. threshold    (grad. norm)   ....   1.000e-05
   Grad. Scal. Fac. for Micro threshold ....   0.100
   Minimum threshold for Micro iter.    ....   1.000e-02
   NR start threshold (gradient norm)   ....   1.000e-04
   Initial trust radius                 ....   0.400
   Minimum AH scaling param. (alpha)    ....   1.000
   Maximum AH scaling param. (alpha)    .... 1000.000
   Quad. conv. algorithm                .... NR
   White noise on init. David. guess    .... on
   Maximum white noise                  ....   0.010
   Pseudo random numbers                .... off
   Inactive MOs                         .... canonical
   Orbital update algorithm             .... Taylor
   Preconditioner                       .... Diag
   Full preconditioner red. dimension   ....   250
 SOSCF                  CNVSOSCF        .... on
   Start iteration      SOSCFMaxIt      ....   150
   Startup grad/error   SOSCFStart      ....  0.003300
   Hessian update       SOSCFHessUp     .... L-BFGS
 Level Shifting         CNVShift        .... on
   Level shift para.    LevelShift      ....    0.2500
   Turn off err/grad.   ShiftErr        ....    0.0010
 Zerner damping         CNVZerner       .... off
 Static damping         CNVDamp         .... on
   Fraction old density DampFac         ....    0.7000
   Max. Damping (<1)    DampMax         ....    0.9800
   Min. Damping (>=0)   DampMin         ....    0.0000
   Turn off err/grad.   DampErr         ....    0.1000

SCF Procedure:
 Maximum # iterations   MaxIter         ....   300
 SCF integral mode      SCFMode         .... Direct
   Integral package                     .... SHARK and LIBINT hybrid scheme
 Reset frequency        DirectResetFreq ....    20
 Integral Threshold     Thresh          ....  2.500e-11 Eh
 Primitive CutOff       TCut            ....  2.500e-12 Eh

Convergence Tolerance:
 Convergence Check Mode ConvCheckMode   .... Total+1el-Energy
 Convergence forced     ConvForced      .... 0
 Energy Change          TolE            ....  1.000e-08 Eh
 1-El. energy change                    ....  1.000e-05 Eh
 Orbital Gradient       TolG            ....  1.000e-05
 Orbital Rotation angle TolX            ....  1.000e-05
 DIIS Error             TolErr          ....  5.000e-07

------------------------------
INITIAL GUESS: MODEL POTENTIAL
------------------------------
Loading Hartree-Fock densities                     ... done
Calculating cut-offs                               ... done
Initializing the effective Hamiltonian             ... done
Setting up the integral package (SHARK)            ... done
Starting the Coulomb interaction                   ... done (   0.3 sec)
Making the grid                                    ... done (   0.7 sec)
Mapping shells                                     ... done
Starting the XC term evaluation                    ... done (   0.2 sec)
  promolecular density results
     # of electrons  =    115.998698740
     EX              =   -102.846167807
     EC              =     -4.059360866
     EX+EC           =   -106.905528673
Transforming the Hamiltonian                       ... done (   0.0 sec)
Diagonalizing the Hamiltonian                      ... done (   0.0 sec)
Back transforming the eigenvectors                 ... done (   0.0 sec)
Now organizing SCF variables                       ... done
                      ------------------
                      INITIAL GUESS DONE (   1.4 sec)
                      ------------------
             **** ENERGY FILE WAS UPDATED (job.en.tmp) ****
Finished Guess after   2.7 sec
Maximum memory used throughout the entire GUESS-calculation: 20.0 MB


           ************************************************************
           *        Program running with 8 parallel MPI-processes     *
           *              working on a common directory               *
           ************************************************************

-------------------------------------------------------------------------------------------
                                      ORCA LEAN-SCF
                              memory conserving SCF solver
-------------------------------------------------------------------------------------------

--------------------
CPCM SOLVATION MODEL
--------------------
CPCM parameters:
  Epsilon                                         ...       4.0000
  Refrac                                          ...       1.3300
  Rsolv                                           ...       1.3000
  Surface type                                    ... GAUSSIAN VDW
  Discretization scheme                           ... Constant charge density
    Threshold for H atoms                         ...       5.0000 (charges/Ang^2)
    Threshold for non-H atoms                     ...       5.0000 (charges/Ang^2)
  Epsilon function type                           ...         CPCM
Solvent:                                          ... CUSTOM
Radii:
  Scheme                                          ... Element-dependent radii
  Radius for C  used is    3.8550 Bohr (=   2.0400 Ang.)
  Radius for H  used is    2.4944 Bohr (=   1.3200 Ang.)
  Radius for O  used is    3.4469 Bohr (=   1.8240 Ang.)
Calculating surface                               ...        done! (  0.0s)
Cavity surface points                             ...         2066
Cavity Volume                                     ...    1735.7773
Cavity Surface-area                               ...     851.7065
Calculating surface distance matrix               ...        done! (  0.1s)
Performing Cholesky decomposition & store         ...        done! (  1.4s)
Overall time for CPCM initialization              ...                 1.5s

----------------------------------------D-I-I-S--------------------------------------------
Iteration    Energy (Eh)           Delta-E    RMSDP     MaxDP     DIISErr   Damp  Time(sec)
-------------------------------------------------------------------------------------------
               ***  Starting incremental Fock matrix formation  ***
    1    -835.5584654275603498     0.00e+00  4.84e-03  3.37e-01  3.00e-01  0.700   6.7
Warning: op=0 Small HOMO/LUMO gap (   0.090) - skipping pre-diagonalization
         Will do a full diagonalization
    2    -835.8497930463972807    -2.91e-01  3.35e-03  2.58e-01  1.28e-01  0.700   4.0
                               ***Turning on AO-DIIS***
    3    -835.9562500463330252    -1.06e-01  1.26e-03  7.60e-02  4.10e-02  0.700   3.7
    4    -836.0212571421961911    -6.50e-02  1.78e-03  4.10e-02  2.00e-02  0.000   3.8
    5    -836.1661352846831505    -1.45e-01  4.98e-04  3.84e-02  5.81e-03  0.000   4.0
                              *** Initializing SOSCF ***
---------------------------------------S-O-S-C-F--------------------------------------
Iteration    Energy (Eh)           Delta-E    RMSDP     MaxDP     MaxGrad    Time(sec)
--------------------------------------------------------------------------------------
    6    -836.1668317591650066    -6.96e-04  1.49e-04  9.11e-03  1.43e-03     3.6
               *** Restarting incremental Fock matrix formation ***
    7    -836.1668627649951304    -3.10e-05  1.13e-04  2.98e-03  3.30e-04     5.8
    8    -836.1668667628050571    -4.00e-06  4.37e-05  1.47e-03  6.25e-04     4.9
    9    -836.1668743922616613    -7.63e-06  3.70e-05  1.43e-03  1.81e-04     4.5
   10    -836.1668751192564741    -7.27e-07  1.13e-05  3.59e-04  9.02e-05     4.5
   11    -836.1668759046972355    -7.85e-07  1.11e-05  5.50e-04  3.94e-05     4.3
   12    -836.1668758986036210     6.09e-09  4.99e-06  2.88e-04  3.78e-05     4.0
                 **** Energy Check signals convergence ****

               *****************************************************
               *                     SUCCESS                       *
               *           SCF CONVERGED AFTER  12 CYCLES          *
               *****************************************************

Recomputing exchange energy using gridx3       ... done (    8.169 sec)
Old exchange energy                            :    -20.895899823 Eh
New exchange energy                            :    -20.895890129 Eh
Exchange energy change after final integration :      0.000009693 Eh
Total energy after final integration           :   -836.166866205 Eh
             **** ENERGY FILE WAS UPDATED (job.en.tmp) ****

----------------
TOTAL SCF ENERGY
----------------

Total Energy       :       -836.16686620518556 Eh          -22753.25718 eV

Components:
Nuclear Repulsion  :       1107.66431043014222 Eh           30141.07823 eV
Electronic Energy  :      -1943.61344268035941 Eh          -52888.41057 eV
One Electron Energy:      -3389.67780020805685 Eh          -92237.82222 eV
Two Electron Energy:       1446.06435752769744 Eh           39349.41165 eV
CPCM Dielectric    :         -0.21774364838640 Eh              -5.92511 eV

Virial components:
Potential Energy   :      -1665.70789824942040 Eh          -45326.21625 eV
Kinetic Energy     :        829.54103204423495 Eh           22572.95907 eV
Virial Ratio       :          2.00798734951618

DFT components:
N(Alpha)           :       58.999981243714 electrons
N(Beta)            :       58.999981243714 electrons
N(Total)           :      117.999962487429 electrons
E(X)               :      -83.155408803351 Eh       
E(C)               :       -4.848383153425 Eh       
E(XC)              :      -88.003791956776 Eh       

CPCM Solvation Model Properties:
Surface-charge          :          1.98296982624542
Corrected charge        :          2.00000000000000
Outlying charge corr.   :          0.00001391633958 Eh               0.00038 eV
Free-energy (cav+disp)  :  This term is not implemented in the current solvation scheme

---------------
SCF CONVERGENCE
---------------

  Last Energy change         ...   -6.0936e-09  Tolerance :   1.0000e-08
  Last MAX-Density change    ...    2.8774e-04  Tolerance :   1.0000e-07
  Last RMS-Density change    ...    4.9945e-06  Tolerance :   5.0000e-09
  Last DIIS Error            ...    1.4292e-03  Tolerance :   5.0000e-07
  Last Orbital Gradient      ...    3.7796e-05  Tolerance :   1.0000e-05
  Last Orbital Rotation      ...    5.3870e-05  Tolerance :   1.0000e-05


----------------
ORBITAL ENERGIES
----------------

  NO   OCC          E(Eh)            E(eV) 
   0   2.0000     -18.995741      -516.9004 
   1   2.0000     -18.974681      -516.3273 
   2   2.0000     -18.922029      -514.8946 
   3   2.0000     -18.919543      -514.8269 
   4   2.0000     -18.867623      -513.4141 
   5   2.0000     -18.865445      -513.3549 
   6   2.0000     -10.111269      -275.1416 
   7   2.0000     -10.106994      -275.0253 
   8   2.0000     -10.090224      -274.5690 
   9   2.0000     -10.066395      -273.9205 
  10   2.0000     -10.036440      -273.1054 
  11   2.0000     -10.033779      -273.0330 
  12   2.0000     -10.033239      -273.0183 
  13   2.0000     -10.032500      -272.9982 
  14   2.0000     -10.028828      -272.8983 
  15   2.0000     -10.027732      -272.8685 
  16   2.0000      -0.886324       -24.1181 
  17   2.0000      -0.872961       -23.7545 
  18   2.0000      -0.850771       -23.1507 
  19   2.0000      -0.807102       -21.9624 
  20   2.0000      -0.768388       -20.9089 
  21   2.0000      -0.715225       -19.4623 
  22   2.0000      -0.681476       -18.5439 
  23   2.0000      -0.606421       -16.5016 
  24   2.0000      -0.586496       -15.9594 
  25   2.0000      -0.540012       -14.6945 
  26   2.0000      -0.472842       -12.8667 
  27   2.0000      -0.438576       -11.9343 
  28   2.0000      -0.434183       -11.8147 
  29   2.0000      -0.377992       -10.2857 
  30   2.0000      -0.359212        -9.7747 
  31   2.0000      -0.340478        -9.2649 
  32   2.0000      -0.329432        -8.9643 
  33   2.0000      -0.308902        -8.4057 
  34   2.0000      -0.300899        -8.1879 
  35   2.0000      -0.288812        -7.8590 
  36   2.0000      -0.282725        -7.6933 
  37   2.0000      -0.270186        -7.3521 
  38   2.0000      -0.263361        -7.1664 
  39   2.0000      -0.251475        -6.8430 
  40   2.0000      -0.246996        -6.7211 
  41   2.0000      -0.243419        -6.6238 
  42   2.0000      -0.234923        -6.3926 
  43   2.0000      -0.216229        -5.8839 
  44   2.0000      -0.208761        -5.6807 
  45   2.0000      -0.200338        -5.4515 
  46   2.0000      -0.190583        -5.1860 
  47   2.0000      -0.169231        -4.6050 
  48   2.0000      -0.160772        -4.3748 
  49   2.0000      -0.143905        -3.9159 
  50   2.0000      -0.141932        -3.8622 
  51   2.0000      -0.107613        -2.9283 
  52   2.0000      -0.103336        -2.8119 
  53   2.0000      -0.098415        -2.6780 
  54   2.0000      -0.079524        -2.1639 
  55   2.0000      -0.068349        -1.8599 
  56   2.0000      -0.043062        -1.1718 
  57   2.0000      -0.035693        -0.9713 
  58   2.0000      -0.023270        -0.6332 
  59   0.0000       0.106809         2.9064 
  60   0.0000       0.156868         4.2686 
  61   0.0000       0.165850         4.5130 
  62   0.0000       0.195338         5.3154 
  63   0.0000       0.220843         6.0094 
  64   0.0000       0.237862         6.4726 
  65   0.0000       0.242157         6.5894 
  66   0.0000       0.259239         7.0542 
  67   0.0000       0.268902         7.3172 
  68   0.0000       0.286238         7.7889 
  69   0.0000       0.289805         7.8860 
*Only the first 10 virtual orbitals were printed.

                    ********************************
                    * MULLIKEN POPULATION ANALYSIS *
                    ********************************

-----------------------
MULLIKEN ATOMIC CHARGES
-----------------------
   0 C :    0.233079
   1 H :   -0.035547
   2 H :   -0.031116
   3 C :   -0.034333
   4 C :    0.060561
   5 O :   -0.430310
   6 O :   -0.427040
   7 O :   -0.275493
   8 C :   -0.116834
   9 H :   -0.054456
  10 C :    0.060100
  11 H :   -0.029639
  12 C :   -0.219804
  13 C :    0.055346
  14 H :   -0.028139
  15 C :   -0.120462
  16 H :   -0.047557
  17 C :    0.324811
  18 H :   -0.017800
  19 O :   -0.362777
  20 H :    0.163479
  21 C :    0.119098
  22 O :   -0.434178
  23 O :   -0.350987
Sum of atomic charges:   -2.0000000

--------------------------------
MULLIKEN REDUCED ORBITAL CHARGES
--------------------------------
  0 C s       :     2.910860  s :     2.910860
      pz      :     0.942258  p :     2.824164
      px      :     0.965661
      py      :     0.916245
      dz2     :     0.003711  d :     0.031897
      dxz     :     0.009044
      dyz     :     0.007195
      dx2y2   :     0.004610
      dxy     :     0.007336

  1 H s       :     1.012422  s :     1.012422
      pz      :     0.007484  p :     0.023125
      px      :     0.008400
      py      :     0.007240

  2 H s       :     1.008670  s :     1.008670
      pz      :     0.005346  p :     0.022446
      px      :     0.006216
      py      :     0.010884

  3 C s       :     3.236161  s :     3.236161
      pz      :     0.838670  p :     2.708842
      px      :     0.934517
      py      :     0.935656
      dz2     :     0.015781  d :     0.089330
      dxz     :     0.017113
      dyz     :     0.016111
      dx2y2   :     0.023395
      dxy     :     0.016929

  4 C s       :     3.059521  s :     3.059521
      pz      :     0.866612  p :     2.741489
      px      :     0.917856
      py      :     0.957021
      dz2     :     0.009534  d :     0.138428
      dxz     :     0.027943
      dyz     :     0.010455
      dx2y2   :     0.043137
      dxy     :     0.047359

  5 O s       :     3.723315  s :     3.723315
      pz      :     1.515392  p :     4.693071
      px      :     1.638781
      py      :     1.538897
      dz2     :     0.001825  d :     0.013924
      dxz     :     0.001669
      dyz     :     0.002838
      dx2y2   :     0.002831
      dxy     :     0.004762

  6 O s       :     3.734236  s :     3.734236
      pz      :     1.555606  p :     4.678790
      px      :     1.347771
      py      :     1.775414
      dz2     :     0.001691  d :     0.014013
      dxz     :     0.004094
      dyz     :     0.000110
      dx2y2   :     0.005234
      dxy     :     0.002884

  7 O s       :     3.736383  s :     3.736383
      pz      :     1.374498  p :     4.522142
      px      :     1.601620
      py      :     1.546024
      dz2     :     0.003917  d :     0.016968
      dxz     :     0.002858
      dyz     :     0.004397
      dx2y2   :     0.002391
      dxy     :     0.003406

  8 C s       :     3.190257  s :     3.190257
      pz      :     1.010981  p :     2.893421
      px      :     0.955013
      py      :     0.927428
      dz2     :     0.002983  d :     0.033156
      dxz     :     0.007874
      dyz     :     0.003967
      dx2y2   :     0.006626
      dxy     :     0.011707

  9 H s       :     1.031427  s :     1.031427
      pz      :     0.007055  p :     0.023029
      px      :     0.006811
      py      :     0.009162

 10 C s       :     3.177316  s :     3.177316
      pz      :     0.902961  p :     2.727205
      px      :     0.917748
      py      :     0.906496
      dz2     :     0.002863  d :     0.035378
      dxz     :     0.008963
      dyz     :     0.004011
      dx2y2   :     0.008758
      dxy     :     0.010784

 11 H s       :     1.006508  s :     1.006508
      pz      :     0.006952  p :     0.023132
      px      :     0.007051
      py      :     0.009129

 12 C s       :     3.135239  s :     3.135239
      pz      :     0.990419  p :     3.037233
      px      :     1.084367
      py      :     0.962448
      dz2     :     0.007981  d :     0.047332
      dxz     :     0.009651
      dyz     :     0.011682
      dx2y2   :     0.007418
      dxy     :     0.010600

 13 C s       :     3.186182  s :     3.186182
      pz      :     0.917352  p :     2.723729
      px      :     0.878853
      py      :     0.927525
      dz2     :     0.005090  d :     0.034743
      dxz     :     0.011082
      dyz     :     0.003802
      dx2y2   :     0.005952
      dxy     :     0.008817

 14 H s       :     1.004979  s :     1.004979
      pz      :     0.009165  p :     0.023161
      px      :     0.008307
      py      :     0.005689

 15 C s       :     3.212477  s :     3.212477
      pz      :     0.926390  p :     2.875138
      px      :     0.940462
      py      :     1.008286
      dz2     :     0.003666  d :     0.032847
      dxz     :     0.011627
      dyz     :     0.003784
      dx2y2   :     0.005877
      dxy     :     0.007893

 16 H s       :     1.024917  s :     1.024917
      pz      :     0.009881  p :     0.022640
      px      :     0.005786
      py      :     0.006974

 17 C s       :     2.829626  s :     2.829626
      pz      :     0.965098  p :     2.774093
      px      :     0.864475
      py      :     0.944520
      dz2     :     0.008288  d :     0.071470
      dxz     :     0.017599
      dyz     :     0.015055
      dx2y2   :     0.014164
      dxy     :     0.016364

 18 H s       :     0.995666  s :     0.995666
      pz      :     0.009014  p :     0.022133
      px      :     0.003237
      py      :     0.009882

 19 O s       :     3.725149  s :     3.725149
      pz      :     1.522460  p :     4.625476
      px      :     1.326827
      py      :     1.776189
      dz2     :     0.002014  d :     0.012151
      dxz     :     0.005343
      dyz     :     0.002236
      dx2y2   :     0.001231
      dxy     :     0.001328

 20 H s       :     0.769792  s :     0.769792
      pz      :     0.023365  p :     0.066729
      px      :     0.022833
      py      :     0.020530

 21 C s       :     3.025245  s :     3.025245
      pz      :     0.910847  p :     2.715567
      px      :     0.922727
      py      :     0.881993
      dz2     :     0.042063  d :     0.140091
      dxz     :     0.041200
      dyz     :     0.034919
      dx2y2   :     0.010373
      dxy     :     0.011535

 22 O s       :     3.737114  s :     3.737114
      pz      :     1.558623  p :     4.682998
      px      :     1.597085
      py      :     1.527289
      dz2     :     0.002364  d :     0.014066
      dxz     :     0.003961
      dyz     :     0.003209
      dx2y2   :     0.002243
      dxy     :     0.002289

 23 O s       :     3.731051  s :     3.731051
      pz      :     1.350055  p :     4.604993
      px      :     1.680304
      py      :     1.574634
      dz2     :     0.006677  d :     0.014944
      dxz     :     0.003845
      dyz     :     0.003856
      dx2y2   :     0.000260
      dxy     :     0.000306



                     *******************************
                     * LOEWDIN POPULATION ANALYSIS *
                     *******************************

----------------------
LOEWDIN ATOMIC CHARGES
----------------------
   0 C :   -0.036463
   1 H :    0.016116
   2 H :    0.014291
   3 C :    0.035407
   4 C :   -0.081737
   5 O :   -0.390568
   6 O :   -0.386450
   7 O :   -0.198444
   8 C :   -0.081371
   9 H :    0.004759
  10 C :    0.007303
  11 H :    0.017384
  12 C :   -0.079550
  13 C :    0.000715
  14 H :    0.017665
  15 C :   -0.078758
  16 H :    0.007728
  17 C :    0.047535
  18 H :    0.003123
  19 O :   -0.173247
  20 H :    0.072863
  21 C :   -0.021422
  22 O :   -0.388060
  23 O :   -0.328822

-------------------------------
LOEWDIN REDUCED ORBITAL CHARGES
-------------------------------
  0 C s       :     2.856021  s :     2.856021
      pz      :     1.027773  p :     3.095836
      px      :     1.035549
      py      :     1.032514
      dz2     :     0.008434  d :     0.084607
      dxz     :     0.024483
      dyz     :     0.020119
      dx2y2   :     0.012171
      dxy     :     0.019399

  1 H s       :     0.912667  s :     0.912667
      pz      :     0.024108  p :     0.071217
      px      :     0.025594
      py      :     0.021515

  2 H s       :     0.917425  s :     0.917425
      pz      :     0.017407  p :     0.068284
      px      :     0.018715
      py      :     0.032162

  3 C s       :     2.928579  s :     2.928579
      pz      :     0.867814  p :     2.828967
      px      :     0.962640
      py      :     0.998512
      dz2     :     0.030678  d :     0.207047
      dxz     :     0.042130
      dyz     :     0.038869
      dx2y2   :     0.056458
      dxy     :     0.038911

  4 C s       :     2.875400  s :     2.875400
      pz      :     0.847679  p :     2.881451
      px      :     1.020210
      py      :     1.013562
      dz2     :     0.022460  d :     0.324887
      dxz     :     0.058562
      dyz     :     0.022528
      dx2y2   :     0.105619
      dxy     :     0.115718

  5 O s       :     3.571304  s :     3.571304
      pz      :     1.517600  p :     4.794306
      px      :     1.681971
      py      :     1.594735
      dz2     :     0.003365  d :     0.024957
      dxz     :     0.002610
      dyz     :     0.004338
      dx2y2   :     0.005052
      dxy     :     0.009592

  6 O s       :     3.566440  s :     3.566440
      pz      :     1.549296  p :     4.794709
      px      :     1.467292
      py      :     1.778122
      dz2     :     0.003638  d :     0.025300
      dxz     :     0.005568
      dyz     :     0.000166
      dx2y2   :     0.011131
      dxy     :     0.004797

  7 O s       :     3.545137  s :     3.545137
      pz      :     1.410660  p :     4.623648
      px      :     1.621214
      py      :     1.591774
      dz2     :     0.004769  d :     0.029660
      dxz     :     0.005701
      dyz     :     0.008834
      dx2y2   :     0.004608
      dxy     :     0.005747

  8 C s       :     2.877954  s :     2.877954
      pz      :     1.020183  p :     3.115207
      px      :     1.081604
      py      :     1.013419
      dz2     :     0.006958  d :     0.088210
      dxz     :     0.019684
      dyz     :     0.009161
      dx2y2   :     0.020322
      dxy     :     0.032084

  9 H s       :     0.926575  s :     0.926575
      pz      :     0.021911  p :     0.068666
      px      :     0.019019
      py      :     0.027736

 10 C s       :     2.874380  s :     2.874380
      pz      :     0.954124  p :     3.026262
      px      :     1.070977
      py      :     1.001160
      dz2     :     0.007345  d :     0.092055
      dxz     :     0.021503
      dyz     :     0.009149
      dx2y2   :     0.024864
      dxy     :     0.029193

 11 H s       :     0.911684  s :     0.911684
      pz      :     0.022358  p :     0.070932
      px      :     0.020557
      py      :     0.028017

 12 C s       :     2.871669  s :     2.871669
      pz      :     1.010820  p :     3.094694
      px      :     1.071511
      py      :     1.012363
      dz2     :     0.016792  d :     0.113187
      dxz     :     0.023091
      dyz     :     0.030448
      dx2y2   :     0.015586
      dxy     :     0.027270

 13 C s       :     2.878419  s :     2.878419
      pz      :     1.000026  p :     3.030616
      px      :     1.073491
      py      :     0.957100
      dz2     :     0.013673  d :     0.090250
      dxz     :     0.030142
      dyz     :     0.008808
      dx2y2   :     0.017009
      dxy     :     0.020618

 14 H s       :     0.911868  s :     0.911868
      pz      :     0.027954  p :     0.070467
      px      :     0.024136
      py      :     0.018376

 15 C s       :     2.878256  s :     2.878256
      pz      :     1.015054  p :     3.114037
      px      :     1.076371
      py      :     1.022611
      dz2     :     0.010183  d :     0.086466
      dxz     :     0.031489
      dyz     :     0.008733
      dx2y2   :     0.016461
      dxy     :     0.019599

 16 H s       :     0.923775  s :     0.923775
      pz      :     0.029933  p :     0.068497
      px      :     0.016516
      py      :     0.022048

 17 C s       :     2.834985  s :     2.834985
      pz      :     1.027445  p :     2.955657
      px      :     0.896182
      py      :     1.032031
      dz2     :     0.015173  d :     0.161823
      dxz     :     0.041264
      dyz     :     0.038762
      dx2y2   :     0.028811
      dxy     :     0.037812

 18 H s       :     0.924189  s :     0.924189
      pz      :     0.028257  p :     0.072687
      px      :     0.012457
      py      :     0.031974

 19 O s       :     3.450675  s :     3.450675
      pz      :     1.584027  p :     4.699253
      px      :     1.358073
      py      :     1.757153
      dz2     :     0.002727  d :     0.023319
      dxz     :     0.011048
      dyz     :     0.003490
      dx2y2   :     0.002802
      dxy     :     0.003251

 20 H s       :     0.748215  s :     0.748215
      pz      :     0.068076  p :     0.178922
      px      :     0.056185
      py      :     0.054661

 21 C s       :     2.852473  s :     2.852473
      pz      :     1.020336  p :     2.846908
      px      :     0.945168
      py      :     0.881404
      dz2     :     0.103661  d :     0.322041
      dxz     :     0.094191
      dyz     :     0.075452
      dx2y2   :     0.022467
      dxy     :     0.026270

 22 O s       :     3.569281  s :     3.569281
      pz      :     1.622645  p :     4.793636
      px      :     1.622014
      py      :     1.548977
      dz2     :     0.004076  d :     0.025143
      dxz     :     0.007825
      dyz     :     0.006079
      dx2y2   :     0.002855
      dxy     :     0.004308

 23 O s       :     3.569909  s :     3.569909
      pz      :     1.465983  p :     4.732451
      px      :     1.689775
      py      :     1.576693
      dz2     :     0.014094  d :     0.026463
      dxz     :     0.006470
      dyz     :     0.005222
      dx2y2   :     0.000340
      dxy     :     0.000336



                      *****************************
                      * MAYER POPULATION ANALYSIS *
                      *****************************

  NA   - Mulliken gross atomic population
  ZA   - Total nuclear charge
  QA   - Mulliken gross atomic charge
  VA   - Mayer's total valence
  BVA  - Mayer's bonded valence
  FA   - Mayer's free valence

  ATOM       NA         ZA         QA         VA         BVA        FA
  0 C      5.7669     6.0000     0.2331     3.7642     3.7642    -0.0000
  1 H      1.0355     1.0000    -0.0355     1.0588     1.0588    -0.0000
  2 H      1.0311     1.0000    -0.0311     1.0221     1.0221    -0.0000
  3 C      6.0343     6.0000    -0.0343     3.9684     3.9684    -0.0000
  4 C      5.9394     6.0000     0.0606     4.4737     4.4737    -0.0000
  5 O      8.4303     8.0000    -0.4303     2.0520     2.0520    -0.0000
  6 O      8.4270     8.0000    -0.4270     2.0456     2.0456    -0.0000
  7 O      8.2755     8.0000    -0.2755     2.1791     2.1791    -0.0000
  8 C      6.1168     6.0000    -0.1168     3.9627     3.9627    -0.0000
  9 H      1.0545     1.0000    -0.0545     0.9880     0.9880    -0.0000
 10 C      5.9399     6.0000     0.0601     3.9205     3.9205     0.0000
 11 H      1.0296     1.0000    -0.0296     1.0318     1.0318     0.0000
 12 C      6.2198     6.0000    -0.2198     3.6913     3.6913     0.0000
 13 C      5.9447     6.0000     0.0553     3.8805     3.8805     0.0000
 14 H      1.0281     1.0000    -0.0281     1.0302     1.0302     0.0000
 15 C      6.1205     6.0000    -0.1205     3.9035     3.9035     0.0000
 16 H      1.0476     1.0000    -0.0476     0.9902     0.9902     0.0000
 17 C      5.6752     6.0000     0.3248     3.7691     3.7691     0.0000
 18 H      1.0178     1.0000    -0.0178     1.0721     1.0721     0.0000
 19 O      8.3628     8.0000    -0.3628     2.0270     2.0270     0.0000
 20 H      0.8365     1.0000     0.1635     1.0183     1.0183     0.0000
 21 C      5.8809     6.0000     0.1191     4.5113     4.5113     0.0000
 22 O      8.4342     8.0000    -0.4342     2.0466     2.0466     0.0000
 23 O      8.3510     8.0000    -0.3510     2.1583     2.1583     0.0000

  Mayer bond orders larger than 0.100000
B(  0-C ,  1-H ) :   0.8693 B(  0-C ,  2-H ) :   0.9174 B(  0-C ,  3-C ) :   0.9899 
B(  0-C , 12-C ) :   0.9876 B(  3-C ,  4-C ) :   0.8147 B(  3-C ,  7-O ) :   2.0367 
B(  4-C ,  5-O ) :   1.8448 B(  4-C ,  6-O ) :   1.8004 B(  5-O ,  6-O ) :   0.1267 
B(  6-O , 18-H ) :   0.1023 B(  8-C ,  9-H ) :   0.9628 B(  8-C , 10-C ) :   1.8641 
B(  8-C , 17-C ) :   0.9807 B( 10-C , 11-H ) :   0.9639 B( 10-C , 12-C ) :   0.9962 
B( 12-C , 13-C ) :   0.9569 B( 12-C , 21-C ) :   0.7671 B( 13-C , 14-H ) :   0.9621 
B( 13-C , 15-C ) :   1.8591 B( 15-C , 16-H ) :   0.9685 B( 15-C , 17-C ) :   0.9794 
B( 17-C , 18-H ) :   0.8498 B( 17-C , 19-O ) :   0.9776 B( 19-O , 20-H ) :   0.9781 
B( 21-C , 22-O ) :   1.7833 B( 21-C , 23-O ) :   1.9373 B( 22-O , 23-O ) :   0.1177 


-------
TIMINGS
-------

Total SCF time: 0 days 0 hours 1 min 5 sec 

Total time                  ....      65.708 sec
Sum of individual times     ....      65.069 sec  ( 99.0%)

SCF preparation             ....       3.175 sec  (  4.8%)
Fock matrix formation       ....      59.012 sec  ( 89.8%)
  Startup                   ....       0.280 sec  (  0.5% of F)
  Split-RI-J                ....       5.727 sec  (  9.7% of F)
  Chain of spheres X        ....      37.422 sec  ( 63.4% of F)
  XC integration            ....       8.408 sec  ( 14.2% of F)
    XC Preparation          ....       0.000 sec  (  0.0% of XC)
    Basis function eval.    ....       2.414 sec  ( 28.7% of XC)
    Density eval.           ....       1.480 sec  ( 17.6% of XC)
    XC-Functional eval.     ....       0.369 sec  (  4.4% of XC)
    XC-Potential eval.      ....       1.497 sec  ( 17.8% of XC)
  CPCM terms                ....       6.051 sec  ( 10.3% of F)
Diagonalization             ....       0.000 sec  (  0.0%)
Density matrix formation    ....       0.514 sec  (  0.8%)
Total Energy calculation    ....       0.321 sec  (  0.5%)
Population analysis         ....       0.124 sec  (  0.2%)
Orbital Transformation      ....       0.246 sec  (  0.4%)
Orbital Orthonormalization  ....       0.000 sec  (  0.0%)
DIIS solution               ....       1.138 sec  (  1.7%)
SOSCF solution              ....       0.539 sec  (  0.8%)
Finished LeanSCF after  66.0 sec

Maximum memory used throughout the entire LEANSCF-calculation: 31.4 MB


-------------------------------------------------------------------------------
                          DFT DISPERSION CORRECTION                            
                                                                               
                              DFTD3 V3.1  Rev 1                                
                          USING Becke-Johnson damping                          
-------------------------------------------------------------------------------
The B3LYP functional is recognized
Active option DFTDOPT                   ...         4   

molecular C6(AA) [au] = 6861.108343 


            DFT-D V3
 parameters
 s6 scaling factor         :     1.0000 
 a1 scaling factor         :     0.3981 
 s8 scaling factor         :     1.9889 
 a2 scaling factor         :     4.4211 
 ad hoc parameters k1-k3   :    16.0000     1.3333    -4.0000 

 Edisp/kcal,au: -34.113852350938  -0.054363878351 
 E6   /kcal   : -15.962716921 
 E8   /kcal   : -18.151135430 
 % E8         :  53.207521810 

-------------------------   ----------------
Dispersion correction           -0.054363878
-------------------------   ----------------


-------------------------   --------------------
FINAL SINGLE POINT ENERGY      -836.221230083536
-------------------------   --------------------



           ************************************************************
           *        Program running with 8 parallel MPI-processes     *
           *              working on a common directory               *
           ************************************************************
------------------------------------------------------------------------------
                         ORCA SCF GRADIENT CALCULATION
------------------------------------------------------------------------------

Nuc. rep. gradient        (SHARK) ... done (  0.0 sec)
HCore & Overlap gradient  (SHARK) ... done (  0.3 sec)
Split-RIJ-J gradient      (SHARK) ... done (  1.8 sec)
COSX-gradient                     ... done ( 22.8 sec)
XC gradient                       ... done (  4.3 sec)
CPCM gradient                     ... done (  1.9 sec)
Point charge gradient             ... done (  0.4 sec)
Dispersion correction             ... done (  0.1 sec)

-------------------
DISPERSION GRADIENT
-------------------

   1   C   :    0.000685992    0.000324674    0.000512686
   2   H   :    0.000363653    0.000072004    0.000333305
   3   H   :    0.000384700    0.000345991    0.000115466
   4   C   :    0.000169815    0.000754447    0.001023668
   5   C   :   -0.000197764    0.001047641    0.000685726
   6   O   :   -0.000012802    0.000719017    0.000144148
   7   O   :   -0.000371224    0.000615533    0.000364959
   8   O   :   -0.000089619    0.000110991    0.001046811
   9   C   :   -0.000680377   -0.000893734    0.000032190
  10   H   :   -0.000208296   -0.000387770    0.000138420
  11   C   :   -0.000003425   -0.000944803    0.000211462
  12   H   :    0.000041622   -0.000529351    0.000193218
  13   C   :    0.000565300   -0.000262262   -0.000220676
  14   C   :    0.000146588    0.000157778   -0.001101801
  15   H   :    0.000104027    0.000210521   -0.000484502
  16   C   :   -0.000591585    0.000096796   -0.001088641
  17   H   :   -0.000146802    0.000171950   -0.000381864
  18   C   :   -0.000858162   -0.000347374   -0.000448626
  19   H   :   -0.000544205    0.000024380   -0.000035758
  20   O   :   -0.000553016   -0.000126142   -0.000188508
  21   H   :   -0.000343771   -0.000099542   -0.000022941
  22   C   :    0.000884290   -0.000422456   -0.000326619
  23   O   :    0.000673042   -0.000402540    0.000001587
  24   O   :    0.000582021   -0.000235750   -0.000503711

Difference to translation invariance:
           :    0.0000000000   -0.0000000000   -0.0000000000

Difference to rotation invariance:
           :   -0.0000000000   -0.0000000000   -0.0000000000

Norm of the Dispersion gradient    ...    0.0041903040
RMS gradient                       ...    0.0004938321
MAX gradient                       ...    0.0011018007

------------------
CARTESIAN GRADIENT
------------------

   1   C   :    0.002583153    0.000674063    0.000232861
   2   H   :   -0.002302098    0.002680645    0.001622679
   3   H   :    0.000677691    0.000382333    0.000736711
   4   C   :   -0.000309701   -0.005046694    0.004242432
   5   C   :    0.000147763   -0.010132709    0.006146956
   6   O   :   -0.005696604    0.002224496   -0.000786003
   7   O   :    0.006553154   -0.000383729   -0.001318922
   8   O   :   -0.001494814    0.006075931   -0.014087003
   9   C   :   -0.001081972    0.000810038    0.002141547
  10   H   :    0.002519993    0.002955777   -0.000159840
  11   C   :   -0.000384964   -0.003367681   -0.000969706
  12   H   :   -0.001568014    0.001540466    0.000744438
  13   C   :    0.005611182   -0.001909623   -0.002750532
  14   C   :   -0.000467715    0.000797849   -0.000321063
  15   H   :    0.000680277   -0.000146278   -0.002123220
  16   C   :   -0.001028549    0.001584780   -0.000170775
  17   H   :    0.001161872   -0.000048780    0.000565256
  18   C   :   -0.002593630   -0.002005977   -0.003972769
  19   H   :    0.001181798   -0.000371712   -0.002707699
  20   O   :    0.010866283    0.002456719    0.008879886
  21   H   :   -0.004100572   -0.001428389    0.000047487
  22   C   :   -0.026908425    0.015807530    0.013421792
  23   O   :    0.009441382   -0.009947535   -0.011858032
  24   O   :    0.013178142   -0.015438628   -0.005833921

Difference to translation invariance:
           :    0.0066656300   -0.0122371087   -0.0082774396

Difference to rotation invariance:
           :    0.7529097359    1.6421689302   -1.8230984821

Norm of the Cartesian gradient     ...    0.0529835401
RMS gradient                       ...    0.0062441701
MAX gradient                       ...    0.0269084246

-------
TIMINGS
-------

Total SCF gradient time     ....       31.609 sec

Densities                   ....       0.002 sec  (  0.0%)
One electron gradient       ....       0.307 sec  (  1.0%)
RI-J Coulomb gradient       ....       1.769 sec  (  5.6%)
COSX gradient               ....      22.754 sec  ( 72.0%)
XC gradient                 ....       4.330 sec  ( 13.7%)
CPCM gradient               ....       1.909 sec  (  6.0%)
   A-Matrix (El+Nuc)        ....       0.465 sec  (  1.5%)
   Potential                ....       1.444 sec  (  4.6%)

Maximum memory used throughout the entire SCFGRAD-calculation: 36.0 MB
------------------------------------------------------------------------------
                         ORCA GEOMETRY RELAXATION STEP
------------------------------------------------------------------------------

Reading the OPT-File                    .... done
Number of atoms                         ....  24
Number of degrees of freedom            ....  72
Current Energy                          ....  -836.221230084 Eh
Current gradient norm                   ....     0.052983540 Eh/bohr
Maximum allowed component of the step   ....  0.300
Current trust radius                    ....  0.300
Building the approximate Hessian        .... (Almloef)  done
Building the normal mode matrix         .... done
Forming augmented Hessian.
Diagonalizing augmented Hessian.
Reducing step size.
The input lambda is                     ....    -0.014576
   iter:   5  x=   -0.045680  g=    3.533979 f(x)=     0.003123
The output lambda is                    ....    -0.045705 (8 iterations)
The step size is now                    ....  0.300
Storing new coordinates                 .... done

                                .--------------------.
          ----------------------|Geometry convergence|-------------------------
          Item                value                   Tolerance       Converged
          ---------------------------------------------------------------------
          RMS gradient        0.0062441701            0.0001000000      NO
          MAX gradient        0.0269084246            0.0003000000      NO
          RMS step            0.0353553391            0.0020000000      NO
          MAX step            0.1588215612            0.0040000000      NO
          -------------------------------------------------------------------------

The optimization has not yet converged - more geometry cycles are needed

Geometry step timings:
Preparation and reading OPT file:      0.003 s (10.201 %)
Hessian update/contruction      :      0.017 s (54.805 %)
Making the step                 :      0.004 s (11.674 %)
Storing new data                :      0.002 s ( 6.480 %)
Checking convergence            :      0.005 s (16.829 %)
Total time                      :      0.030 s

Time for energy+gradient        :    113.761 s
Time for complete geometry iter :    119.054 s

         *************************************************************
         *                GEOMETRY OPTIMIZATION CYCLE   2            *
         *************************************************************
---------------------------------
CARTESIAN COORDINATES (ANGSTROEM)
---------------------------------
  C     60.081345   34.052735   56.356309
  H     60.756434   33.537423   57.057095
  H     60.596233   34.919886   55.917689
  C     58.833025   34.468147   57.098231
  C     58.153987   35.841871   56.823357
  O     58.912332   36.799684   56.531110
  O     56.910995   35.875918   56.993175
  O     58.346481   33.736464   57.952619
  C     57.540214   31.926823   55.689568
  H     56.929582   31.166090   56.189206
  C     58.869986   31.920549   55.806229
  H     59.396918   31.158063   56.384076
  C     59.733457   33.006856   55.225832
  C     59.022069   33.704026   54.092967
  H     59.666380   34.196587   53.359956
  C     57.689521   33.713477   53.972715
  H     57.190211   34.245193   53.154858
  C     56.800561   33.031414   54.978806
  H     56.505393   33.803291   55.721869
  O     55.623917   32.548457   54.323115
  H     55.030457   32.218569   55.010490
  C     61.071579   32.326688   54.745499
  O     61.771859   31.821973   55.660009
  O     61.346884   32.442266   53.532941

----------------------------
CARTESIAN COORDINATES (A.U.)
----------------------------
  NO LB      ZA    FRAG     MASS         X           Y           Z
   0 C     6.0000    0    12.011  113.537287   64.350343  106.497990
   1 H     1.0000    0     1.008  114.813021   63.376545  107.822284
   2 H     1.0000    0     1.008  114.510285   65.989020  105.669119
   3 C     6.0000    0    12.011  111.178304   65.135358  107.900020
   4 C     6.0000    0    12.011  109.895109   67.731320  107.380582
   5 O     8.0000    0    15.999  111.328173   69.541325  106.828315
   6 O     8.0000    0    15.999  107.546195   67.795660  107.701491
   7 O     8.0000    0    15.999  110.258869   63.752679  109.514579
   8 C     6.0000    0    12.011  108.735246   60.332952  105.238031
   9 H     1.0000    0     1.008  107.581320   58.895375  106.182211
  10 C     6.0000    0    12.011  111.248151   60.321095  105.458490
  11 H     1.0000    0     1.008  112.243909   58.880205  106.550461
  12 C     6.0000    0    12.011  112.879875   62.373919  104.361698
  13 C     6.0000    0    12.011  111.535546   63.691378  102.220893
  14 H     1.0000    0     1.008  112.753118   64.622184  100.835704
  15 C     6.0000    0    12.011  109.017396   63.709238  101.993650
  16 H     1.0000    0     1.008  108.073836   64.714035  100.448123
  17 C     6.0000    0    12.011  107.337504   62.420327  103.894887
  18 H     1.0000    0     1.008  106.779718   63.878962  105.299073
  19 O     8.0000    0    15.999  105.113970   61.507670  102.655811
  20 H     1.0000    0     1.008  103.992493   60.884271  103.954760
  21 C     6.0000    0    12.011  115.408558   61.088587  103.454000
  22 O     8.0000    0    15.999  116.731896   60.134814  105.182173
  23 O     8.0000    0    15.999  115.928810   61.306997  101.162598

--------------------------------
INTERNAL COORDINATES (ANGSTROEM)
--------------------------------
 C      0   0   0     0.000000000000     0.00000000     0.00000000
[...]
  Rsolv                                           ...       1.3000
  Surface type                                    ... GAUSSIAN VDW
  Discretization scheme                           ... Constant charge density
    Threshold for H atoms                         ...       5.0000 (charges/Ang^2)
    Threshold for non-H atoms                     ...       5.0000 (charges/Ang^2)
  Epsilon function type                           ...         CPCM
Solvent:                                          ... CUSTOM
Radii:
  Scheme                                          ... Element-dependent radii
  Radius for C  used is    3.8550 Bohr (=   2.0400 Ang.)
  Radius for H  used is    2.4944 Bohr (=   1.3200 Ang.)
  Radius for O  used is    3.4469 Bohr (=   1.8240 Ang.)
Calculating surface                               ...        done! (  0.0s)
Cavity surface points                             ...         2094
Cavity Volume                                     ...    1704.9438
Cavity Surface-area                               ...     870.1182
Calculating surface distance matrix               ...        done! (  0.1s)
Performing Cholesky decomposition & store         ...        done! (  0.5s)
Overall time for CPCM initialization              ...                 0.6s

----------------------------------------D-I-I-S--------------------------------------------
Iteration    Energy (Eh)           Delta-E    RMSDP     MaxDP     DIISErr   Damp  Time(sec)
-------------------------------------------------------------------------------------------
               ***  Starting incremental Fock matrix formation  ***
    1    -836.2541548440319730     0.00e+00  7.43e-05  1.81e-03  6.39e-03  0.700   5.6
    2    -836.2543429443940113    -1.88e-04  6.73e-05  1.75e-03  5.04e-03  0.700   3.0
                               ***Turning on AO-DIIS***
    3    -836.2544906136292866    -1.48e-04  5.49e-05  1.47e-03  3.77e-03  0.700   2.9
                              *** Initializing SOSCF ***
---------------------------------------S-O-S-C-F--------------------------------------
Iteration    Energy (Eh)           Delta-E    RMSDP     MaxDP     MaxGrad    Time(sec)
--------------------------------------------------------------------------------------
    4    -836.2545992527714134    -1.09e-04  1.40e-04  3.68e-03  2.72e-03     3.0
               *** Restarting incremental Fock matrix formation ***
    5    -836.2548702352896726    -2.71e-04  1.65e-05  3.86e-04  7.58e-05     5.5
    6    -836.2548710136750287    -7.78e-07  1.22e-05  2.94e-04  5.92e-05     3.8
    7    -836.2548708475933381     1.66e-07  7.65e-06  1.92e-04  1.00e-04     3.7
    8    -836.2548711700824242    -3.22e-07  1.84e-06  7.10e-05  6.43e-06     3.6
    9    -836.2548711578247094     1.23e-08  9.65e-07  3.26e-05  7.94e-06     3.1
   10    -836.2548711672311583    -9.41e-09  5.40e-07  2.37e-05  3.52e-06     2.8
                 **** Energy Check signals convergence ****

               *****************************************************
               *                     SUCCESS                       *
               *           SCF CONVERGED AFTER  10 CYCLES          *
               *****************************************************

Recomputing exchange energy using gridx3       ... done (    7.372 sec)
Old exchange energy                            :    -20.891419415 Eh
New exchange energy                            :    -20.891433837 Eh
Exchange energy change after final integration :     -0.000014423 Eh
Total energy after final integration           :   -836.254885590 Eh
             **** ENERGY FILE WAS UPDATED (job.en.tmp) ****

----------------
TOTAL SCF ENERGY
----------------

Total Energy       :       -836.25488559003441 Eh          -22755.65231 eV

Components:
Nuclear Repulsion  :       1101.82985323469802 Eh           29982.31458 eV
Electronic Energy  :      -1937.86189368226906 Eh          -52731.90297 eV
One Electron Energy:      -3374.90236334385008 Eh          -91835.76215 eV
Two Electron Energy:       1437.04046966158103 Eh           39103.85918 eV
CPCM Dielectric    :         -0.22283071966015 Eh              -6.06353 eV

Virial components:
Potential Energy   :      -1665.64391704962736 Eh          -45324.47523 eV
Kinetic Energy     :        829.38903145959307 Eh           22568.82292 eV
Virial Ratio       :          2.00827820705364

DFT components:
N(Alpha)           :       58.999911616193 electrons
N(Beta)            :       58.999911616193 electrons
N(Total)           :      117.999823232387 electrons
E(X)               :      -83.134964831175 Eh       
E(C)               :       -4.844352192492 Eh       
E(XC)              :      -87.979317023666 Eh       

CPCM Solvation Model Properties:
Surface-charge          :          1.98354968799779
Corrected charge        :          2.00000000000000
Outlying charge corr.   :          0.00001293728146 Eh               0.00035 eV
Free-energy (cav+disp)  :  This term is not implemented in the current solvation scheme

---------------
SCF CONVERGENCE
---------------

  Last Energy change         ...    9.4064e-09  Tolerance :   1.0000e-08
  Last MAX-Density change    ...    2.3680e-05  Tolerance :   1.0000e-07
  Last RMS-Density change    ...    5.4001e-07  Tolerance :   5.0000e-09
  Last DIIS Error            ...    2.7205e-03  Tolerance :   5.0000e-07
  Last Orbital Gradient      ...    3.5166e-06  Tolerance :   1.0000e-05
  Last Orbital Rotation      ...    9.0703e-06  Tolerance :   1.0000e-05


Total SCF time: 0 days 0 hours 0 min 46 sec 
Finished LeanSCF after  48.0 sec

Maximum memory used throughout the entire LEANSCF-calculation: 40.5 MB


-------------------------------------------------------------------------------
                          DFT DISPERSION CORRECTION                            
                                                                               
                              DFTD3 V3.1  Rev 1                                
                          USING Becke-Johnson damping                          
-------------------------------------------------------------------------------
-------------------------   ----------------
Dispersion correction           -0.053357822
-------------------------   ----------------


-------------------------   --------------------
FINAL SINGLE POINT ENERGY      -836.308243411965
-------------------------   --------------------



           ************************************************************
           *        Program running with 8 parallel MPI-processes     *
           *              working on a common directory               *
           ************************************************************
------------------------------------------------------------------------------
                         ORCA SCF GRADIENT CALCULATION
------------------------------------------------------------------------------

Nuc. rep. gradient        (SHARK) ... done (  0.0 sec)
HCore & Overlap gradient  (SHARK) ... done (  0.2 sec)
Split-RIJ-J gradient      (SHARK) ... done (  1.5 sec)
COSX-gradient                     ... done ( 20.4 sec)
XC gradient                       ... done (  3.9 sec)
CPCM gradient                     ... done (  1.8 sec)
Point charge gradient             ... done (  0.4 sec)
Dispersion correction             ... done (  0.1 sec)

-------------------
DISPERSION GRADIENT
-------------------

   1   C   :    0.000072867    0.000311058    0.000808292
   2   H   :    0.000084807    0.000057266    0.000476286
   3   H   :    0.000008116    0.000357499    0.000338777
   4   C   :   -0.000733583    0.000288331    0.001048934
   5   C   :   -0.001052670    0.000471232    0.000547295
   6   O   :   -0.000564763    0.000565873    0.000186488
   7   O   :   -0.000847923    0.000169595    0.000149373
   8   O   :   -0.000476622   -0.000289957    0.000850103
   9   C   :    0.000160408   -0.001048088   -0.000357840
  10   H   :    0.000080502   -0.000395154    0.000027241
  11   C   :    0.000636502   -0.000780548    0.000090691
  12   H   :    0.000309811   -0.000402363    0.000145603
  13   C   :    0.000650953    0.000168588    0.000059504
  14   C   :    0.000282623    0.000522964   -0.000861004
  15   H   :    0.000078289    0.000404027   -0.000399690
  16   C   :   -0.000163074    0.000020882   -0.001191723
  17   H   :   -0.000118615    0.000162982   -0.000400118
  18   C   :   -0.000180037   -0.000590841   -0.000710382
  19   H   :   -0.000317132   -0.000357671   -0.000282610
  20   O   :   -0.000160598   -0.000315006   -0.000437242
  21   H   :   -0.000055194   -0.000263408   -0.000210802
  22   C   :    0.000922751    0.000387049    0.000086664
  23   O   :    0.000748729    0.000076286    0.000207118
  24   O   :    0.000633853    0.000479406   -0.000170959

Difference to translation invariance:
           :    0.0000000000   -0.0000000000   -0.0000000000

Difference to rotation invariance:
           :    0.0000000000   -0.0000000000   -0.0000000000

Norm of the Dispersion gradient    ...    0.0041491987
RMS gradient                       ...    0.0004889878
MAX gradient                       ...    0.0011917233

------------------
CARTESIAN GRADIENT
------------------

   1   C   :    0.001238761   -0.000430671   -0.000687435
   2   H   :    0.000214850   -0.000249353   -0.000071923
   3   H   :    0.000023370    0.000566884    0.000042746
   4   C   :    0.000383910    0.001451990   -0.000631235
   5   C   :   -0.000048752   -0.001310905    0.000262966
   6   O   :    0.000616563    0.002172358    0.000045658
   7   O   :   -0.000659363   -0.000778952   -0.000817386
   8   O   :   -0.000860061   -0.001920808    0.001001090
   9   C   :   -0.000137224   -0.000420671   -0.000068943
  10   H   :   -0.000209201   -0.000269740   -0.000088572
  11   C   :    0.000191343   -0.000209905    0.000013480
  12   H   :    0.000146260   -0.000287450   -0.000068132
  13   C   :   -0.000017285    0.000315416   -0.000120169
  14   C   :    0.000649424   -0.000202772    0.000293723
  15   H   :    0.000303900    0.000624969   -0.000165430
  16   C   :   -0.000226678   -0.000554481   -0.000309560
  17   H   :    0.000088406   -0.000135595   -0.000058798
  18   C   :   -0.000041059   -0.000266864   -0.000065824
  19   H   :   -0.000346133    0.000031544    0.000150275
  20   O   :   -0.000017640   -0.001312535   -0.000191650
  21   H   :   -0.000246647    0.000583890   -0.000183870
  22   C   :   -0.000127412   -0.000018937   -0.000539430
  23   O   :    0.000965635   -0.001028978    0.000922638
  24   O   :   -0.000058163    0.000424548   -0.000736384

Difference to translation invariance:
           :    0.0018268052   -0.0032270203   -0.0020721665

Difference to rotation invariance:
           :    0.2043299692    0.4270691387   -0.4849823537

Norm of the Cartesian gradient     ...    0.0052707421
RMS gradient                       ...    0.0006211629
MAX gradient                       ...    0.0021723578

-------
TIMINGS
-------

Total SCF gradient time     ....       28.186 sec

Densities                   ....       0.002 sec  (  0.0%)
One electron gradient       ....       0.234 sec  (  0.8%)
RI-J Coulomb gradient       ....       1.461 sec  (  5.2%)
COSX gradient               ....      20.358 sec  ( 72.2%)
XC gradient                 ....       3.864 sec  ( 13.7%)
CPCM gradient               ....       1.759 sec  (  6.2%)
   A-Matrix (El+Nuc)        ....       0.484 sec  (  1.7%)
   Potential                ....       1.274 sec  (  4.5%)

Maximum memory used throughout the entire SCFGRAD-calculation: 35.9 MB
------------------------------------------------------------------------------
                         ORCA GEOMETRY RELAXATION STEP
------------------------------------------------------------------------------

Reading the OPT-File                    .... done
Number of atoms                         ....  24
Number of degrees of freedom            ....  72
Current Energy                          ....  -836.308243412 Eh
Current gradient norm                   ....     0.005270742 Eh/bohr
Maximum allowed component of the step   ....  0.300
Current trust radius                    ....  0.467
Updating the approximate Hessian        .... done
Forming augmented Hessian.
Diagonalizing augmented Hessian.
Reducing step size.
The input lambda is                     ....    -0.001048
   iter:   5  x=   -0.002165  g=  194.661901 f(x)=     0.000513
The output lambda is                    ....    -0.002165 (8 iterations)
The step size is now                    ....  0.467
Storing new coordinates                 .... done
The predicted energy change is          .... -0.000514390
Previously predicted energy change      .... -0.000555885
Actually observed energy change         .... -0.000547686
Ratio of predicted to observed change   .... 0.985250474
New trust radius                        .... 0.700000000

                                .--------------------.
          ----------------------|Geometry convergence|-------------------------
          Item                value                   Tolerance       Converged
          ---------------------------------------------------------------------
          Energy change      -0.0005476863            0.0000050000      NO
          RMS gradient        0.0006211629            0.0001000000      NO
          MAX gradient        0.0021723578            0.0003000000      NO
          RMS step            0.0549971941            0.0020000000      NO
          MAX step            0.1107804529            0.0040000000      NO
          -------------------------------------------------------------------------

The optimization has not yet converged - more geometry cycles are needed

Geometry step timings:
Preparation and reading OPT file:      0.006 s (15.312 %)
Hessian update/contruction      :      0.019 s (46.132 %)
Making the step                 :      0.004 s ( 9.361 %)
Storing new data                :      0.002 s ( 5.440 %)
Checking convergence            :      0.010 s (23.755 %)
Total time                      :      0.041 s

Time for energy+gradient        :     88.468 s
Time for complete geometry iter :     95.085 s




    ----------------------------------------------------------------------------
                                  WARNING !!!
       The optimization did not converge but reached the maximum number of
       optimization cycles.
       Please check your results very carefully.
    ----------------------------------------------------------------------------



--------------------------------
SUGGESTED CITATIONS FOR THIS RUN
--------------------------------

Below you find a list of papers that are relevant to this ORCA run
We neither can nor want to force you to cite these papers, but we appreciate if you do
You receive ORCA, which is the product of decades of hard work by many enthusiastic individuals, for free
The only thing we kindly ask in return is that you cite our papers,
We deeply appreciate it, if you show your appreciation for ORCA by not just citing the generic ORCA reference.

Please note that relegating all ORCA citations to the supporting information does *not* help us.
SI sections are not indexed - citations you put there will not count into any citation statistics
But we need these citations in order to attract the funding resources that allow us to do what we are doing

Therefore, if you are a happy ORCA user, please consider citing a few of the papers listed below in the main body of your paper

In addition to the list printed below, the program has created the file job.bibtex that contains the list in bibtex format
You can import this file easily into all common literature databanks and citation aid programs


List of essential papers. We consider these as the minimum necessary citations

  1. Neese,F.
     Software update: the ORCA program system, version 5.0
     WIRES Comput. Molec. Sci., 2022 12(1)e1606
     doi.org/10.1002/wcms.1606

List of papers to cite with high priority. The work reported in these papers was absolutely
necessary for this run to complete.
Our perspective: the developers of density functionals and basis sets usually get cited in chemistry papers
Good! But without the algorithms to do something with them, the functionals or basis sets would not do anything.
Hence, in our opinion, the algorithm design and method developments papers are equally worthy of getting cited

  1. Neese,F.
     An improvement of the resolution of the identity approximation for the formation of the Coulomb matrix
     J. Comp. Chem., 2003 24(14)1740-1747
     doi.org/10.1002/jcc.10318
  2. Neese,F.; Wennmohs,F.; Hansen,A.; Becker,U.
     Efficient, approximate and parallel Hartree-Fock and hybrid DFT calculations. A 'chain-of-spheres' algorithm for the Hartree-Fock exchange
     Chem. Phys., 2009 356(1-3)98-109
     doi.org/10.1016/j.chemphys.2008.10.036
  3. Garcia-Rates,M.; Neese,F.
     Effect of the Solute Cavity on the Solvation Energy and its Derivatives within the Framework of the Gaussian Charge Scheme
     J. Comput. Chem., 2020 41 922-939
     doi.org/10.1002/jcc.26139
  4. Helmich-Paris,B.; de Souza,B.; Neese,F.; Izsák,R.
     An improved chain of spheres for exchange algorithm
     J. Chem. Phys., 2021 155 104109
     doi.org/doi: 10.1063/5.0058766.
  5. Neese,F.
     The SHARK Integral Generation and Digestion System
     J. Comp. Chem., 2022  1-16
     doi.org/10.1002/jcc.26942
  6. Grimme,S.; Antony,J.; Ehrlich,S.; Krieg,H.
     A consistent and accurate ab initio parametrization of density functional dispersion correction (DFT-D) for the 94 elements H-Pu
     J. Chem. Phys., 2010 132 154104
     doi.org/10.1063/1.3382344
  7. Grimme,S.; Ehrlich,S.; Goerigk,L.
     Effect of the damping function in dispersion corrected density functional theory
     J. Comput. Chem., 2011 32(7)1456-1465
     doi.org/10.1002/jcc.21759

List of suggested additional citations. These are papers that are important in the 'surrounding' of 
of this run, or papers that preceded the highly important papers. If you like your results we are grateful for a citation.

  1. Izsak,R.; Neese,F.
     An overlap fitted chain of spheres exchange method
     J. Chem. Phys., 2011 135 144105
     doi.org/10.1063/1.3646921
  2. Izsak,R.; Hansen,A.; Neese,F.
     The resolution of identity and chain of spheres approximations for the LPNO-CCSD singles Fock term
     Molec. Phys., 2012 110 2413-2417
     doi.org/10.1080/00268976.2012.687466
  3. Neese,F.
     The ORCA program system
     WIRES Comput. Molec. Sci., 2012 2(1)73-78
     doi.org/10.1002/wcms.81
  4. Izsak,R.; Neese,F.; Klopper,W.
     Robust fitting techniques in the chain of spheres approximation to the Fock exchange: The role of the complementary space
     J. Chem. Phys., 2013 139 
     doi.org/10.1063/1.4819264
  5. Neese,F.
     Software update: the ORCA program system, version 4.0
     WIRES Comput. Molec. Sci., 2018 8(1)1-6
     doi.org/10.1002/wcms.1327
  6. Neese,F.; Wennmohs,F.; Becker,U.; Riplinger,C.
     The ORCA quantum chemistry program package
     J. Chem. Phys., 2020 152 Art. No. L224108
     doi.org/10.1063/5.0004608

List of optional additional citations

  1. Neese,F.
     Approximate second-order SCF convergence for spin unrestricted wavefunctions
     Chem. Phys. Lett., 2000 325(1-3)93-98
     doi.org/10.1016/s0009-2614(00)00662-x

Timings for individual modules:

Sum of individual times          ...     7089.338 sec (= 118.156 min)
Startup calculation              ...      496.991 sec (=   8.283 min)   7.0 %
SCF iterations                   ...     4215.933 sec (=  70.266 min)  59.5 %
SCF Gradient evaluation          ...     2373.686 sec (=  39.561 min)  33.5 %
Geometry relaxation              ...        2.728 sec (=   0.045 min)   0.0 %
                             ****ORCA TERMINATED NORMALLY****
TOTAL RUN TIME: 0 days 2 hours 4 minutes 27 seconds 14 msec
