26   
Iteration 0 Energy -836.41021725
C       60.1119380000   34.3839690000   57.2101320000
H       60.6071990000   33.4299390000   57.3846090000
H       60.7246930000   35.2718180000   57.0591930000
C       58.7805770000   34.5035320000   57.1519580000
C       58.0921820000   35.8342610000   56.8933540000
O       58.8124670000   36.8182180000   56.5787890000
O       56.8395490000   35.8489170000   57.0096170000
O       57.9346150000   33.4264030000   57.3459980000
C       57.6769360000   32.5377320000   56.2008060000
H       57.0190170000   31.7637690000   56.6240720000
C       58.9864870000   31.9618400000   55.7931720000
H       59.4639300000   31.2429830000   56.4604960000
C       59.6831050000   32.4826710000   54.7681510000
C       59.0643210000   33.4837090000   53.8931790000
H       59.7023610000   33.9045440000   53.1109690000
C       57.7812530000   33.8656590000   54.0315330000
H       57.3321810000   34.6023540000   53.3566290000
C       56.8897990000   33.2710930000   55.0861820000
H       56.3471900000   34.0906480000   55.5858800000
O       55.9628630000   32.3977070000   54.4346680000
H       55.3108450000   32.1095270000   55.0927700000
C       61.1232000000   32.0621260000   54.5342080000
O       61.7849620000   31.7023280000   55.5433810000
O       61.5410710000   32.1065130000   53.3527380000
He      63.0044000000   29.1163000000   52.2256000000
He      57.4994000000   32.3130000000   60.9995000000
26   
Iteration 1 Energy -836.41767368
C       60.1078537459   34.3878626707   57.2283692764
H       60.6105837335   33.4271904009   57.3618462481
H       60.7206708616   35.2749270808   57.0630770029
C       58.7741023868   34.5160584541   57.1547394344
C       58.0628896981   35.8493767308   56.8884762973
O       58.8204148330   36.8106509307   56.6161184834
O       56.8113678492   35.8609632693   57.0445366092
O       57.9339257956   33.4304100070   57.3432272446
C       57.6806558421   32.5361448212   56.1946137363
H       57.0089914263   31.7702527855   56.6257649128
C       58.9807025033   31.9501721379   55.7831859752
H       59.4682293867   31.2351943595   56.4516135781
C       59.6925075758   32.4715637636   54.7651482763
C       59.0675496756   33.4725915861   53.8911846261
H       59.7069521157   33.8899394961   53.1095340192
C       57.7864460934   33.8610316394   54.0338910482
H       57.3361419553   34.5994655175   53.3618378750
C       56.8914528371   33.2712824266   55.0866083940
H       56.3502296865   34.0915173976   55.5917521209
O       55.9687646728   32.3897017411   54.4362382413
H       55.3131050760   32.1142275227   55.0928013087
C       61.1487375182   32.0538597400   54.5271733279
O       61.7399021045   31.7307729240   55.5969572245
O       61.5473948987   32.1154311109   53.3489340303
He      63.0166637377   29.0779161713   52.1874008978
He      57.5303049911   32.3430553135   60.9425538115
26   
Iteration 2 Energy -836.42850632
C       60.0935953690   34.3930491971   57.2540932747
H       60.6110023051   33.4257522741   57.3085063981
H       60.7027863091   35.2842852107   57.0785130862
C       58.7558284412   34.5217809819   57.1657376015
C       58.0419075022   35.8868683294   56.9398345495
O       58.7914955700   36.8398240163   56.6705373238
O       56.7882896272   35.8778716423   57.1006207325
O       57.9228223978   33.4250954418   57.3402610963
C       57.6783385830   32.5272717014   56.1833268559
H       56.9830382110   31.7809825311   56.6274637056
C       58.9580936470   31.9234283794   55.7644003996
H       59.4680281015   31.2180413717   56.4325086332
C       59.6862897493   32.4489292044   54.7573500989
C       59.0689250766   33.4510741798   53.8805081761
H       59.7115470465   33.8626656335   53.0995852570
C       57.7940087215   33.8552713883   54.0343146818
H       57.3444421195   34.5980040129   53.3678882998
C       56.8935172122   33.2710277687   55.0852161483
H       56.3529189663   34.0894196622   55.6001472305
O       55.9790046490   32.3769357256   54.4365853425
H       55.3146532840   32.1257499223   55.0906465552
C       61.1815358651   32.0469922130   54.5540895671
O       61.7371707942   31.7669679971   55.6604720928
O       61.5646699840   32.1292047346   53.3891589980
He      63.0442586189   28.9892638780   52.1039565807
He      57.6083728454   32.4158025997   60.8018613158
26   
Iteration 3 Energy -836.46005493
C       60.0486454507   34.4030807583   57.3046175179
H       60.5939261461   33.4402109996   57.1332711962
H       60.6336116266   35.3213283476   57.1417072421
C       58.7039132860   34.5403163241   57.2029428935
C       57.9566848421   35.9717790482   57.0948099461
O       58.6989274441   36.9201424405   56.8975877984
O       56.7097592078   35.9211834189   57.3336637580
O       57.8955617615   33.4132637801   57.3318833564
C       57.6579518457   32.4923464439   56.1601711293
H       56.8986711694   31.8138122549   56.6351596518
C       58.8903006201   31.8401755848   55.7227986928
H       59.4492931762   31.1629865586   56.3928572952
C       59.6583722566   32.3800925345   54.7481272382
C       59.0727060580   33.3814970639   53.8511779258
H       59.7222411790   33.7672961675   53.0622259647
C       57.8170039941   33.8379967282   54.0326744749
H       57.3763022217   34.5962183897   53.3795767568
C       56.8993297208   33.2652987661   55.0785114381
H       56.3565561871   34.0757790094   55.6124746330
O       56.0058566847   32.3467542293   54.4309220114
H       55.3077192697   32.1675265112   55.0708707294
C       61.2639754563   32.0628072242   54.6700606287
O       61.7416325255   31.8747938937   55.8406722562
O       61.6699408839   32.1708967607   53.5452319469
He      63.1436698923   28.6583471524   51.8027457481
He      57.9039880806   32.7056296034   60.2508417761
26   
Iteration 4 Energy -836.52756565
C       59.9974768122   34.4092272021   57.3223047800
H       60.5565836510   33.4875583730   56.9408318713
H       60.5373626724   35.3700793930   57.2266341111
C       58.6443070280   34.5488721909   57.2591294546
C       57.8614029189   36.0507717039   57.3617620824
O       58.5732868685   37.0107606341   57.1949452653
O       56.6235109328   35.9407485799   57.6388372055
O       57.8761364464   33.3875574332   57.3469757393
C       57.6207529157   32.4454729542   56.1454634013
H       56.8137460869   31.8375780875   56.6472568829
C       58.8189633483   31.7533187516   55.6876923569
H       59.4074049090   31.1000626779   56.3699546712
C       59.6313874419   32.3007573738   54.7491236592
C       59.0774001453   33.2971118496   53.8262860900
H       59.7337081041   33.6402295922   53.0201873763
C       57.8437537209   33.8136680424   54.0317381911
H       57.4221616491   34.5901704633   53.3868347494
C       56.8987749442   33.2526181690   55.0718828981
H       56.3503673812   34.0529582244   55.6150665725
O       56.0251646442   32.3230431309   54.4166222886
H       55.2844510649   32.2205769111   55.0247861219
C       61.3493239322   32.0991632444   54.8298776052
O       61.7048650502   32.0126272765   56.0658684001
O       61.8452533546   32.2285417847   53.7550734170
He      63.2744894753   28.2072916335   51.3848158299
He      58.3045054732   33.1507943093   59.4076329945
26   
Iteration 5 Energy -836.57381799
C       59.9991664255   34.4263324412   57.2664465911
H       60.5425004132   33.5009715177   57.0464882904
H       60.5384380321   35.3739594307   57.2332673469
C       58.6555380594   34.5310668980   57.2893598038
C       57.8728309447   35.9772911737   57.3704753769
O       58.5848097885   36.9628495649   57.2104631132
O       56.6525948105   35.8771513808   57.6491311865
O       57.8735798918   33.3837666687   57.3591614600
C       57.6077722407   32.4420878442   56.1622662888
H       56.8437536339   31.8062120509   56.6358196737
C       58.8508600001   31.7834105533   55.7408360432
H       59.3824956888   31.1095230855   56.4251412578
C       59.6281752735   32.3250583295   54.7766938633
C       59.0793381345   33.3152464004   53.8477868365
H       59.7276714414   33.6528446441   53.0321335915
C       57.8405053049   33.8140946103   54.0282468653
H       57.4260999270   34.5838341060   53.3705264081
C       56.8996088342   33.2466809653   55.0659882596
H       56.3437646184   34.0500958363   55.5834298833
O       56.0053085726   32.3538011318   54.3986821217
H       55.2586516660   32.2146785227   54.9944818317
C       61.2814206959   32.1242762887   54.8369733640
O       61.6941650912   31.9749693573   56.0133739183
O       61.8662651682   32.2388811129   53.7810041620
He      63.2691719762   28.1967287734   51.3688775732
He      58.3520543374   33.2657472969   59.2405289054
26   
Iteration 6 Energy -836.60396902
C       59.9915700826   34.4408037390   57.2141665090
H       60.5473578514   33.5207882316   57.1851568560
H       60.5478317991   35.3710166532   57.2600826836
C       58.6845648753   34.4759241007   57.4163117617
C       57.9114295177   35.7738144122   57.4505052038
O       58.6106823252   36.8079199173   57.2562488218
O       56.7096373504   35.6861018886   57.6929149458
O       57.8895084883   33.3548580681   57.3953793105
C       57.5812446776   32.4268440244   56.1776821287
H       56.9326632929   31.7015986177   56.6171875544
C       58.9454302380   31.8955801292   55.8445016860
H       59.3248412628   31.1547508384   56.5540658299
C       59.6827058233   32.4052771382   54.8531424642
C       59.0914721111   33.3587891096   53.9118442113
H       59.7350039099   33.6791816966   53.0861742039
C       57.8264586764   33.8044920128   54.0286823511
H       57.4305905456   34.5516934336   53.3316982431
C       56.8725526115   33.2307209263   55.0596887422
H       56.3167571709   34.0502550259   55.5234583433
O       55.9610097389   32.4163291447   54.3544621887
H       55.1989898058   32.2074205567   54.9155563971
C       61.1324798045   32.1522552208   54.8403044600
O       61.5578889953   31.9392052757   55.9889164077
O       61.8525661217   32.2484195420   53.8075119886
He      63.2695637403   28.1518719202   51.3121389231
He      58.4717401548   33.7256483596   58.6498018010
26   
Iteration 7 Energy -836.62138116
C       60.0116549092   34.4242403383   57.2209295362
H       60.5594755014   33.4858186465   57.0933737675
H       60.5526547626   35.3707319534   57.2410591957
C       58.6668397175   34.5079614162   57.3404148272
C       57.8812666608   35.8640690041   57.4157490863
O       58.5925813622   36.8725138586   57.2502103579
O       56.6704927983   35.7598844064   57.6940697491
O       57.8593758643   33.3620917684   57.3589246292
C       57.5925702119   32.4272090376   56.1525265460
H       56.8783537246   31.7390230296   56.6151731094
C       58.8950375089   31.8383695748   55.8066624210
H       59.3556662995   31.1326546580   56.4976409879
C       59.6567595270   32.3765955847   54.8263168332
C       59.0862350543   33.3428470713   53.8834954773
H       59.7372474367   33.6778071755   53.0715613901
C       57.8321809383   33.8063983111   54.0231132847
H       57.4224665026   34.5587629223   53.3437752100
C       56.8871914945   33.2402766196   55.0525111262
H       56.3351708055   34.0576119303   55.5510017792
O       55.9802106109   32.3880790557   54.3658657529
H       55.2234968318   32.2112666421   54.9448722982
C       61.2085772208   32.1423677573   54.8549805330
O       61.6347524041   31.9647219417   56.0276815261
O       61.8367328876   32.2406602012   53.7954289628
He      63.2728383731   28.1613028263   51.3261691712
He      58.4467115624   33.5782942526   58.9740764581
26   
Iteration 8 Energy -836.64255297
C       60.0149120206   34.4017226112   57.2194754128
H       60.5704014406   33.4640975150   57.0835623840
H       60.5521651293   35.3522751173   57.2439400389
C       58.6701908024   34.4795820863   57.3733601350
C       57.8861281815   35.8288915483   57.4431812989
O       58.5837430621   36.8480668350   57.2737814218
O       56.6747879203   35.7237598128   57.7268988014
O       57.8545455692   33.3381555917   57.3564000489
C       57.5803351736   32.4111901944   56.1370929630
H       56.8910354997   31.7018962530   56.6061871534
C       58.8961728139   31.8517934082   55.8064317783
H       59.3469348897   31.1417295411   56.5071835617
C       59.6618335498   32.3948150794   54.8380187693
C       59.0884593352   33.3523459422   53.8914922526
H       59.7450647198   33.6942242271   53.0878741088
C       57.8264626229   33.8006927455   54.0196991554
H       57.4177518128   34.5463086196   53.3322370829
C       56.8719783375   33.2331288410   55.0462609649
H       56.3315697131   34.0551785080   55.5483825759
O       55.9656636862   32.3939080920   54.3514897446
H       55.2112970680   32.2108286419   54.9286481175
C       61.1953873746   32.1568930076   54.8760555754
O       61.6476665431   31.9723405442   56.0418716940
O       61.8128446175   32.2380709295   53.8081276154
He      63.2752210840   28.1441588184   51.3070259358
He      58.5039880030   33.7955054724   58.8729054289
26   
Iteration 9 Energy -836.66481868
C       60.0101683770   34.3664316431   57.2555983003
H       60.5779475372   33.4370612874   57.0537676699
H       60.5448842352   35.3210847789   57.2535307238
C       58.6746668518   34.4234179762   57.4566429877
C       57.8914699253   35.7999646542   57.4896362903
O       58.5861214238   36.8097573214   57.2888533563
O       56.6741159743   35.7094843895   57.7530723630
O       57.8822007908   33.2924059564   57.3481005829
C       57.5605143149   32.3864736911   56.1195985216
H       56.9198738641   31.6506617799   56.6076240625
C       58.8948147515   31.8682046848   55.7694229357
H       59.3435085250   31.1551320974   56.4940922818
C       59.6751340887   32.4119571655   54.8358847652
C       59.0895124769   33.3589849105   53.8937771954
H       59.7511596469   33.7067087615   53.0963649750
C       57.8158877295   33.7924616783   54.0204973962
H       57.4122541943   34.5366433964   53.3265303753
C       56.8393608775   33.2159849563   55.0475117169
H       56.3173551604   34.0389281193   55.5551958125
O       55.9442903139   32.3902082534   54.3420307738
H       55.1984236576   32.2088166135   54.9210198149
C       61.1992578450   32.1629763920   54.8761562531
O       61.6241478801   32.0018095986   56.0658648689
O       61.8085459630   32.2393678148   53.8070540760
He      63.2789074203   28.1295332072   51.2918384493
He      58.5620171457   34.1170988554   58.7579174703
26   
Iteration 10 Energy -836.67675697
C       60.0367187629   34.3282848282   57.2124042028
H       60.6005802154   33.3972984410   56.9908707608
H       60.5605253891   35.2928511484   57.2552207041
C       58.6818632386   34.3767963509   57.4558884489
C       57.8839680243   35.7767858857   57.4795864084
O       58.6000190591   36.7693651235   57.3118742731
O       56.6756572143   35.6878246013   57.7803492587
O       57.8843241966   33.2696803730   57.3329017821
C       57.5532946118   32.3716068786   56.1139082676
H       56.9318371226   31.6207398402   56.6082858855
C       58.8924765107   31.8694203879   55.7616653438
H       59.3485084747   31.1549757607   56.4801032281
C       59.6823627471   32.4340438797   54.8419047107
C       59.0917905253   33.3731786326   53.8959825736
H       59.7517855200   33.7328410010   53.1026162949
C       57.8094014076   33.7854129031   54.0191744990
H       57.3980475503   34.5208169927   53.3204974183
C       56.8280290403   33.2001996226   55.0448955408
H       56.3126673530   34.0260472475   55.5593782128
O       55.9301603953   32.3859773084   54.3336157230
H       55.1805195104   32.2052687362   54.9099070218
C       61.1950963605   32.1801825428   54.8858238558
O       61.6136750691   32.0458017331   56.0876849865
O       61.8032264254   32.2414425733   53.8196311057
He      63.2816173509   28.1102849529   51.2701181065
He      58.5483888963   34.3744322375   58.8532954040
26   
Iteration 11 Energy -836.64419162
C       60.0408490481   34.3056723580   57.1706498818
H       60.6081923489   33.3615984135   56.8881632007
H       60.6065139859   35.2509388917   57.2704114401
C       58.5995214197   34.4256852729   57.4559396688
C       57.8469562771   35.8290148192   57.4179495300
O       58.6214217739   36.7761080937   57.3449182820
O       56.6716344223   35.6937010906   57.7755285664
O       57.7281191045   33.3738025170   57.2301683814
C       57.5760492987   32.3463108751   56.1312236357
H       56.8021532134   31.6924217002   56.5798263286
C       58.8850297417   31.7798618067   55.8588729148
H       59.3720202768   31.0980976490   56.4926314661
C       59.6725060147   32.4378975254   54.8888079600
C       59.1022270973   33.3878578756   53.9087045192
H       59.7495678350   33.7740072097   53.1178502671
C       57.8280544450   33.7761845553   54.0045303360
H       57.3705740767   34.4905668876   53.3150388724
C       56.9096767065   33.1840040476   55.0039488112
H       56.3642182073   34.0181828430   55.5399600636
O       55.9487082351   32.3715804054   54.3082571889
H       55.1680072547   32.2020793538   54.8882702495
C       61.1820998507   32.2113045642   54.9149954266
O       61.6169511570   32.1095980975   56.1160872748
O       61.7925535543   32.2473530573   53.8506585690
He      63.2845168885   28.0800737002   51.2333360127
He      58.7284187376   34.3076563724   59.0208551685
26   
Iteration 12 Energy -836.67603510
C       60.0339820998   34.3324307858   57.2014295868
H       60.6006871747   33.3949700659   56.9730806410
H       60.5729536277   35.2883265685   57.2585329845
C       58.6365711919   34.4134736671   57.4425054198
C       57.8655672356   35.8066607099   57.4602703392
O       58.6036325630   36.7792407237   57.3171466058
O       56.6713026368   35.6916663718   57.7701108806
O       57.8110951506   33.3223063869   57.2966800263
C       57.5710396296   32.3649310236   56.1237496310
H       56.8664028145   31.6641334307   56.5917222087
C       58.8891843228   31.8211622038   55.8150522280
H       59.3572382683   31.1289238919   56.4900180621
C       59.6748937451   32.4270066884   54.8576246810
C       59.0942522878   33.3749994314   53.8975356839
H       59.7498560840   33.7403074778   53.1035409245
C       57.8217486937   33.7856680259   54.0124561540
H       57.3926444789   34.5162952006   53.3209940957
C       56.8749435781   33.2040393161   55.0258664077
H       56.3408680246   34.0341675568   55.5499279696
O       55.9456369548   32.3837077585   54.3238715734
H       55.1818529188   32.2050702803   54.9051144460
C       61.1890766425   32.1868427157   54.8927325536
O       61.6197679364   32.0542313774   56.0877245344
O       61.8022212560   32.2441088148   53.8286686959
He      63.2832935651   28.1040978642   51.2630517497
He      58.6258280901   34.2627916452   58.9181759342
26   
Iteration 13 Energy -836.68515939
C       60.0250713603   34.3174824373   57.2069312816
H       60.6001998604   33.3907588066   56.9684405526
H       60.5640097198   35.2724059410   57.2620979775
C       58.6408420324   34.3847551113   57.4586920750
C       57.8780752136   35.8052367064   57.4662848035
O       58.6070766461   36.7893081212   57.3264239938
O       56.6768140023   35.7001333854   57.7506152159
O       57.7900615213   33.3124516936   57.3299148628
C       57.5729586615   32.3836034056   56.1311482551
H       56.8842628063   31.6610952879   56.5901007563
C       58.8956475776   31.8430588130   55.8040156677
H       59.3562734312   31.1297983669   56.4868369624
C       59.6723427881   32.4352994841   54.8553842237
C       59.0906662628   33.3804140398   53.9018235464
H       59.7494204048   33.7483892921   53.1110724612
C       57.8124764660   33.7838318558   54.0137928136
H       57.3850786921   34.5083592336   53.3152077426
C       56.8629276401   33.1998605748   55.0305375228
H       56.3304419012   34.0232507648   55.5494693713
O       55.9418225256   32.3821912013   54.3231826118
H       55.1829576951   32.2031360665   54.9011853293
C       61.1864425836   32.2017254776   54.9028194380
O       61.6400032603   32.0684988179   56.0862028058
O       61.8070352632   32.2437735665   53.8415569751
He      63.2834273508   28.0942594359   51.2527866565
He      58.6402053042   34.2684820949   58.8610601170
26   
Iteration 14 Energy -836.69007272
C       60.0123398626   34.2842112447   57.1906484579
H       60.6038314736   33.3731302967   56.9355249643
H       60.5481886253   35.2424906178   57.2609760224
C       58.6401525312   34.3439815879   57.4723082824
C       57.8837613478   35.8007645924   57.4771193352
O       58.6342172328   36.7698790213   57.3400047242
O       56.6748746741   35.7111379595   57.7243492029
O       57.7460006675   33.2952501669   57.3719678807
C       57.5770933123   32.3990022629   56.1475255913
H       56.8963374814   31.6547948925   56.5823281036
C       58.9072688726   31.8658337930   55.8062496675
H       59.3593303689   31.1305138371   56.4834576896
C       59.6784339608   32.4539450882   54.8663031070
C       59.0907610192   33.3942561769   53.9133768220
H       59.7485831559   33.7664715731   53.1236702198
C       57.8052602590   33.7832337503   54.0165792341
H       57.3718033245   34.4939751884   53.3072384006
C       56.8577142901   33.1956390238   55.0360013084
H       56.3201402031   34.0124143114   55.5491497850
O       55.9460500170   32.3769403483   54.3239385894
H       55.1838989735   32.1997211934   54.8938991400
C       61.1890053726   32.2203495467   54.9077244583
O       61.6273713885   32.1099208580   56.1041720420
O       61.8161610783   32.2464223248   53.8482259440
He      63.2880703186   28.0688477898   51.2262532862
He      58.6698911603   34.3384325371   58.8185917627
26   
Iteration 15 Energy -836.69304132
C       59.9866414400   34.2436820149   57.1557728395
H       60.6065697368   33.3505805744   56.8805497580
H       60.5112791568   35.2085514106   57.2467512261
C       58.6270509260   34.2936003558   57.4837855800
C       57.8855050848   35.8004613259   57.4546730268
O       58.6679755573   36.7499968013   57.3607530213
O       56.6747247182   35.7310897383   57.6788664107
O       57.6971400314   33.2656932414   57.4335180978
C       57.5837226988   32.4184576801   56.1708907661
H       56.8998916922   31.6510386839   56.5607298054
C       58.9161449663   31.8883546500   55.8220305548
H       59.3622201500   31.1315819708   56.4833431755
C       59.6816698008   32.4743656780   54.8801113083
C       59.0911090667   33.4133999740   53.9276419008
H       59.7488996975   33.7890701205   53.1396882887
C       57.8005801752   33.7872688832   54.0211657917
H       57.3579460264   34.4780987333   53.2974399489
C       56.8600447129   33.2002383355   55.0446808689
H       56.3119218398   34.0116619326   55.5504411815
O       55.9601970030   32.3709904181   54.3300149097
H       55.1899023630   32.1969711535   54.8888256661
C       61.1917484481   32.2432793837   54.9206771161
O       61.6404568364   32.1582099240   56.1171072195
O       61.8201340270   32.2491947457   53.8634175104
He      63.2935102586   28.0366454332   51.1911013991
He      58.7095545579   34.3890768208   58.8236066502
26   
Iteration 16 Energy -836.69703171
C       59.9529656830   34.1987358197   57.1221655585
H       60.6056384877   33.3263932324   56.8049895336
H       60.4560505565   35.1704818707   57.2144938638
C       58.6167150182   34.2492354843   57.5364640655
C       57.8805345380   35.8064672654   57.4447117841
O       58.7148496861   36.7127066175   57.3896650589
O       56.6633326375   35.7560855019   57.5808294818
O       57.7030940880   33.2155351573   57.4819420954
C       57.5855952022   32.4287013100   56.1972460151
H       56.8975903179   31.6363857249   56.5275749361
C       58.9209444876   31.9072571516   55.8460109202
H       59.3661457858   31.1377609411   56.4881448311
C       59.6835531861   32.4966343599   54.8960711794
C       59.0915432724   33.4387967734   53.9458949085
H       59.7481968221   33.8200828130   53.1599911492
C       57.7966994053   33.7940663820   54.0300870240
H       57.3428610994   34.4596794048   53.2886492885
C       56.8639255326   33.2099546091   55.0609066122
H       56.3052222393   34.0220052405   55.5561456228
O       55.9794618873   32.3641694669   54.3469988571
H       55.1969354238   32.1945902027   54.8889784294
C       61.1974412258   32.2717653061   54.9320555538
O       61.6533618470   32.2224722488   56.1307348399
O       61.8259076055   32.2531250797   53.8777855229
He      63.3027581453   27.9870492012   51.1365789014
He      58.7252167938   34.4514228198   58.8424679904
26   
Iteration 17 Energy -836.69999877
C       59.9246513085   34.1728543668   57.1355501818
H       60.6021009423   33.3244230843   56.7899837713
H       60.3984726031   35.1565474475   57.1826589224
C       58.6081573523   34.2042782909   57.5855100747
C       57.8847646903   35.8083115300   57.3988257487
O       58.7456648399   36.6875955655   57.4298353968
O       56.6661138843   35.7615437255   57.4402683404
O       57.7211995167   33.1600320846   57.5153718706
C       57.5809875756   32.4255232675   56.2150288581
H       56.8936272974   31.6154075866   56.4991121811
C       58.9233482763   31.9175434020   55.8576690501
H       59.3696972155   31.1545250285   56.4992500106
C       59.6860027363   32.5091915223   54.9018810396
C       59.0913266489   33.4590956632   53.9607784467
H       59.7460306691   33.8465339846   53.1764762715
C       57.7951924764   33.8045540314   54.0448898981
H       57.3335449592   34.4522367504   53.2925831039
C       56.8663819655   33.2223750522   55.0817622198
H       56.3010155349   34.0390930914   55.5682429284
O       55.9959834282   32.3587122987   54.3709095742
H       55.2025616742   32.1948942388   54.8993667083
C       61.2038592257   32.2928563162   54.9284819059
O       61.6563551762   32.2748399153   56.1323784303
O       61.8304506477   32.2558556672   53.8767865708
He      63.3152471782   27.9281139118   51.0727550669
He      58.7338031511   34.5046221644   58.8712274556
26   
Iteration 18 Energy -836.70257864
C       59.9075645627   34.1582818514   57.1682885093
H       60.5965750746   33.3276411446   56.8079712693
H       60.3464317766   35.1616196994   57.1792743403
C       58.5948242640   34.1649876726   57.6259274143
C       57.8923188737   35.8083591286   57.3764390228
O       58.7591913401   36.6672015155   57.4653709051
O       56.6793985164   35.7458058122   57.2721919064
O       57.7114955819   33.1217276194   57.5395286998
C       57.5797813896   32.4149323378   56.2251372076
H       56.8843653341   31.6016967713   56.4772220821
C       58.9266000900   31.9147908421   55.8668741896
H       59.3806782501   31.1728489994   56.5151280175
C       59.6859959419   32.5125395471   54.9028589555
C       59.0902800320   33.4718763507   53.9702057923
H       59.7400295188   33.8675289109   53.1858768032
C       57.7970412239   33.8182001718   54.0623433364
H       57.3272559347   34.4601511816   53.3117303604
C       56.8758732314   33.2342894554   55.0997968759
H       56.3042675581   34.0546769564   55.5825609824
O       56.0083305248   32.3564657108   54.3929667384
H       55.2072772937   32.1991025474   54.9163970982
C       61.2078681538   32.3100272735   54.9218967516
O       61.6768559767   32.3073402017   56.1166606269
O       61.8264318054   32.2579980951   53.8686622479
He      63.3287844473   27.8640423516   51.0024842592
He      58.7410242789   34.5574278413   58.8737896366
26   
Iteration 19 Energy -836.70504467
C       59.9000173362   34.1563071180   57.2419454228
H       60.5902190843   33.3468105529   56.8822153558
H       60.2744387040   35.1912836034   57.2193812412
C       58.5958612445   34.1144363618   57.6768578103
C       57.8955766280   35.8008513461   57.2934993024
O       58.7503538705   36.6375454593   57.5480057649
O       56.7198377773   35.7029331553   56.9600542670
O       57.7532402915   33.0798445526   57.5490910522
C       57.5817783010   32.3970113020   56.2264093068
H       56.8947208527   31.5769333696   56.4670036878
C       58.9373539183   31.9171353608   55.8574217510
H       59.4081755272   31.2177331004   56.5466752907
C       59.6890309113   32.5093031366   54.8939482175
C       59.0844217766   33.4787152764   53.9796011163
H       59.7263984125   33.8854990603   53.1935175709
C       57.7960635053   33.8412451571   54.1005944835
H       57.3250181152   34.4993873254   53.3674156750
C       56.8768469980   33.2499715438   55.1387072489
H       56.3109967881   34.0726307936   55.6201843189
O       56.0106188327   32.3634743917   54.4321841629
H       55.2137506253   32.2147534279   54.9596799181
C       61.2159613323   32.3235648785   54.8963437538
O       61.7025947095   32.3425838218   56.0791802646
O       61.8119754371   32.2572174412   53.8301610894
He      63.3559080533   27.7426809269   50.8696231583
He      58.6553819447   34.6117075293   58.8978828051
26   
Iteration 20 Energy -836.70520217
C       59.8710605750   34.1369749445   57.2873678759
H       60.5817464935   33.3584302624   56.8802967597
H       60.2323060584   35.1811508220   57.2835902507
C       58.5485524250   34.0645509893   57.7497313538
C       57.8985013840   35.7993858591   57.1959188792
O       58.7228028612   36.6124519006   57.6030649132
O       56.7656949122   35.6958801798   56.7552640426
O       57.6642203497   33.0420576400   57.6086921519
C       57.5950972900   32.3823753783   56.2397124222
H       56.8769288309   31.5767385179   56.4456954188
C       58.9546744417   31.9086384672   55.8839722061
H       59.4411986718   31.2326668822   56.5734383994
C       59.6957733480   32.5157064393   54.9083319929
C       59.0851884267   33.4885981550   53.9929394626
H       59.7167161469   33.9036413286   53.2026222919
C       57.8026270130   33.8597443655   54.1272691868
H       57.3199877120   34.5325519378   53.4148017667
C       56.9031062035   33.2543152519   55.1542127976
H       56.3272893965   34.0661962485   55.6432218866
O       56.0197854505   32.3666698776   54.4444253455