
                                 *****************
                                 * O   R   C   A *
                                 *****************

                                            #,                                       
                                            ###                                      
                                            ####                                     
                                            #####                                    
                                            ######                                   
                                           ########,                                 
                                     ,,################,,,,,                         
                               ,,#################################,,                 
                          ,,##########################################,,             
                       ,#########################################, ''#####,          
                    ,#############################################,,   '####,        
                  ,##################################################,,,,####,       
                ,###########''''           ''''###############################       
              ,#####''   ,,,,##########,,,,          '''####'''          '####       
            ,##' ,,,,###########################,,,                        '##       
           ' ,,###''''                  '''############,,,                           
         ,,##''                                '''############,,,,        ,,,,,,###''
      ,#''                                            '''#######################'''  
     '                                                          ''''####''''         
             ,#######,   #######,   ,#######,      ##                                
            ,#'     '#,  ##    ##  ,#'     '#,    #''#        ,####,   ,####,        
            ##       ##  ##   ,#'  ##            #'  '#       #'       #'  '#        
            ##       ##  #######   ##           ,######,      #####,   #    #        
            '#,     ,#'  ##    ##  '#,     ,#' ,#      #,     #,   #   #,  ,#        
             '#######'   ##     ##  '#######'  #'      '#     '####' # '####'        



                #########################################################
                #                        -***-                          #
                #          Department of theory and spectroscopy        #
                #                                                       #
                #                      Frank Neese                      #
                #                                                       #
                #     Directorship, Architecture, Infrastructure        #
                #                    SHARK, DRIVERS                     #
                #        Core code/Algorithms in most modules           #
                #                                                       #
                #        Max Planck Institute fuer Kohlenforschung      #
                #                Kaiser Wilhelm Platz 1                 #
                #                 D-45470 Muelheim/Ruhr                 #
                #                      Germany                          #
                #                                                       #
                #                  All rights reserved                  #
                #                        -***-                          #
                #########################################################


                         Program Version 6.0.1  -  RELEASE   -


 With contributions from (in alphabetic order):
[Max-Planck-Institut fuer Kohlenforschung]                               
  Daniel Aravena         : Magnetic Suceptibility                        
  Michael Atanasov       : Ab Initio Ligand Field Theory (pilot matlab implementation)
  Alexander A. Auer      : GIAO ZORA, VPT2 properties, NMR spectrum      
  Ute Becker             : All parallelization in ORCA, NUMFREQ, NUMCALC 
  Giovanni Bistoni       : ED, misc. LED, open-shell LED, HFLD           
  Martin Brehm           : Molecular dynamics                            
  Dmytro Bykov           : pre 5.0 version of the SCF Hessian            
  Marcos Casanova-Páez   : Triplet and SCS-CIS(D). UHF-(DLPNO)-IP/EA/STEOM-CCSD. UHF-CVS-IP/STEOM-CCSD   
  Vijay G. Chilkuri      : MRCI spin determinant printing, contributions to CSF-ICE 
  Pauline Colinet        : FMM embedding                                 
  Dipayan Datta          : RHF DLPNO-CCSD density                        
  Achintya Kumar Dutta   : EOM-CC, STEOM-CC                              
  Nicolas Foglia         : Exact transition moments, OPA infrastructure, MCD improvements    
  Dmitry Ganyushin       : Spin-Orbit,Spin-Spin,Magnetic field MRCI      
  Miquel Garcia-Rates    : C-PCM and meta-GGA Hessian, CCSD/C-PCM, Gaussian charge scheme 
  Tiago L. C. Gouveia    : GS-ROHF, GS-ROCIS                             
  Yang Guo               : DLPNO-NEVPT2, F12-NEVPT2, CIM, IAO-localization        
  Andreas Hansen         : Spin unrestricted coupled pair/coupled cluster methods 
  Ingolf Harden          : AUTO-CI MPn and infrastructure                
  Benjamin Helmich-Paris : MC-RPA, TRAH-(SCF,CASSCF), AVAS, COSX integrals, SCF dyn. polar. 
  Lee Huntington         : MR-EOM, pCC                                   
  Robert Izsak           : Overlap fitted RIJCOSX, COSX-SCS-MP3, EOM     
  Riya Kayal             : Wick's Theorem for AUTO-CI, AUTO-CI UHF-CCSDT 
  Emily Kempfer          : AUTO-CI, RHF CISDT and CCSDT                  
  Christian Kollmar      : KDIIS, OOCD, Brueckner-CCSD(T), CCSD density, CASPT2, CASPT2-K, improved NEVPT2 
  Axel Koslowski         : Symmetry handling                             
  Simone Kossmann        : meta-GGA functionals, TD-DFT gradient, OOMP2, (MP2 Hessian; deprecated post 5.0) 
  Lucas Lang             : DCDCAS                                        
  Marvin Lechner         : AUTO-CI (C++ implementation), FIC-MRCC        
  Spencer Leger          : CASSCF response                               
  Dagmar Lenk            : GEPOL surface, SMD, ORCA-2-JSON               
  Dimitrios Liakos       : Extrapolation schemes; Compound Job, initial MDCI parallelization 
  Dimitrios Manganas     : Further ROCIS development; embedding schemes. LFT, Crystal Embedding 
  Dimitrios Pantazis     : SARC Basis sets                               
  Anastasios Papadopoulos: AUTO-CI, single reference methods and gradients 
  Taras Petrenko         : pre 6.0 DFT Hessian and TD-DFT gradient, (ASA, deprecated), ECA, 1-Electron XAS/XES, NRVS 
  Peter Pinski           : DLPNO-MP2, DLPNO-MP2 Gradient                 
  Christoph Reimann      : Effective Core Potentials                     
  Marius Retegan         : Local ZFS, SOC                                
  Christoph Riplinger    : Optimizer, TS searches, QM/MM, DLPNO-CCSD(T), (RO)-DLPNO pert. Triples 
  Michael Roemelt        : Original ROCIS implementation                 
  Masaaki Saitow         : Open-shell DLPNO-CCSD energy and density      
  Barbara Sandhoefer     : DKH picture change effects                    
  Kantharuban Sivalingam : CASSCF convergence/infrastructure, NEVPT2 and variants, FIC-MRCI 
  Bernardo de Souza      : ESD, SOC TD-DFT                               
  Georgi L. Stoychev     : AutoAux, RI-MP2 NMR, DLPNO-MP2 response, X2C  
  Van Anh Tran           : RI-MP2 g-tensors                              
  Willem Van den Heuvel  : Paramagnetic NMR                              
  Zikuan Wang            : NOTCH, Electric field optimization            
  Frank Wennmohs         : Technical directorship and infrastructure     
  Hang Xu                : AUTO-CI-Response properties                   
                                                                         
[FACCTs GmbH]                                                            
  Markus Bursch, Miquel Garcia-Rates, Christoph Riplinger, Bernardo de Souza, Georgi L. Stoychev 
                                                                 
  APM, Basis sets (HGBS, AHGBS, def-TZVP (Ac-Lr), def2-XVPD (La-Lu)), CI-OPT, improved COSX, DLPNO-Multilevel,           
  DOCKER, DRACO, updates on ESD, GOAT, IRC, LR-CPCM, MBIS, meta-GGA TD-DFT gradient, ML-optimized integration grids, 
  MM, NACMEs, nearIR, NEB, NEB-TS, NL-DFT gradient (VV10), 2- and 3-layer-ONIOM, interface openCOSMO-RS, QMMM,   
  Crystal-QMMM, SF, symmetry and pop. for TD-DFT, r2SCAN hybrids, SOLVATOR                                   
                                                                         
[Other institutions]                                                     
  V. Asgeirsson          : NEB                                           
  Christoph Bannwarth    : sTDA-DFT, sTD-DFT, PBEh-3c, B97-3c, D3        
  Sebastian Ehlert       : rSCAN, r2SCAN, r2SCAN-3c, D4, dhf basis sets  
  Marvin Friede          : D4 for Fr, Ra, Ac-Lr                          
  Lars Goerigk           : TD-DFT with DH, B97 family of functionals     
  Stefan Grimme          : VdW corrections, initial TS optimization, DFT functionals, gCP, sTDA/sTD-DF 
  Waldemar Hujo          : DFT-NL                                        
  H. Jonsson             : NEB                                           
  Holger Kruse           : gCP                                           
  Marcel Mueller         : wB97X-3c, vDZP basis set                      
  Hagen Neugebauer       : wr2SCAN                                       
  Tobias Risthaus        : range-separated hybrid DFT                    
  Lukas Wittmann         : regularized MP2, r2SCAN double-hybrids, wr2SCAN        
                                                                         
We gratefully acknowledge several colleagues who have allowed us to      
interface, adapt or use parts of their codes:                            
  Ed Valeev, F. Pavosevic, A. Kumar             : LibInt (2-el integral package), F12 methods 
  Garnet Chan, S. Sharma, J. Yang, R. Olivares  : DMRG                   
  Ulf Ekstrom                                   : XCFun DFT Library      
  Mihaly Kallay                                 : mrcc  (arbitrary order and MRCC methods)
  Frank Weinhold                                : gennbo (NPA and NBO analysis)           
  Simon Mueller                                 : openCOSMO-RS                            
  Christopher J. Cramer and Donald G. Truhlar   : smd solvation model                     
  S Lehtola, MJT Oliveira, MAL Marques          : LibXC Library                           
  Liviu Ungur et al                             : ANISO software                          


 Your calculation uses the libint2 library for the computation of 2-el integrals
 For citations please refer to: http://libint.valeyev.net

 Your ORCA version has been built with support for libXC version: 6.2.2
 For citations please refer to: https://libxc.gitlab.io

 This ORCA versions uses:
   CBLAS   interface :  Fast vector & matrix operations
   LAPACKE interface :  Fast linear algebra routines
   SCALAPACK package :  Parallel linear algebra routines
   Shared memory     :  Shared parallel matrices
   BLAS/LAPACK       :  OpenBLAS 0.3.27  USE64BITINT DYNAMIC_ARCH NO_AFFINITY SkylakeX SINGLE_THREADED
        Core in use  :  SkylakeX
   Copyright (c) 2011-2014, The OpenBLAS Project


NOTE: MaxCore=3000 MB was set to SCF,MP2,MDCI,CIPSI,MRCI and CIS
      => If you want to overwrite this, your respective input block should be placed after the MaxCore statement
Your calculation utilizes the atom-pairwise dispersion correction
with the Becke-Johnson damping scheme (D3BJ)


================================================================================

----- Orbital basis set information -----
Your calculation utilizes the basis: def2-SVP
   F. Weigend and R. Ahlrichs, Phys. Chem. Chem. Phys. 7, 3297 (2005).

----- AuxJ basis set information -----
Your calculation utilizes the auxiliary basis: def2/J
   F. Weigend, Phys. Chem. Chem. Phys. 8, 1057 (2006).

================================================================================
                                        WARNINGS
                       Please study these warnings very carefully!
================================================================================


================================================================================
                                       INPUT FILE
================================================================================
NAME = sp_ts.inp
|  1> ! B3LYP D3BJ def2-SVP def2/J RIJCOSX CPCM KeepDens
|  2> %maxcore 3000
|  3> %pal nprocs 8 end
|  4> %cpcm epsilon 4.0 end
|  5> %scf MaxIter 300 end
|  6> * xyz -2 1
|  7> C       60.134000      34.299000      56.783000
|  8> H       60.658000      33.373000      56.993000
|  9> H       60.725000      35.160000      56.462000
| 10> C       58.822000      34.486000      57.043000
| 11> C       58.133000      35.832000      56.867000
| 12> O       58.847000      36.835000      56.596000
| 13> O       56.882000      35.851000      57.014000
| 14> O       58.003000      33.459000      57.386000
| 15> C       57.658000      32.438000      56.132000
| 16> H       57.008000      31.721000      56.646000
| 17> C       58.969000      31.920000      55.777000
| 18> H       59.441000      31.175000      56.416000
| 19> C       59.722000      32.585000      54.873000
| 20> C       59.092000      33.529000      53.942000
| 21> H       59.735000      33.949000      53.163000
| 22> C       57.783000      33.825000      54.012000
| 23> H       57.312000      34.493000      53.285000
| 24> C       56.888000      33.232000      55.065000
| 25> H       56.384000      34.058000      55.595000
| 26> O       55.925000      32.401000      54.411000
| 27> H       55.261000      32.136000      55.067000
| 28> C       61.127000      32.078000      54.586000
| 29> O       61.776000      31.592000      55.548000
| 30> O       61.504000      32.130000      53.392000
| 31> *
| 32> 
| 33>                          ****END OF INPUT****
================================================================================

                       ****************************
                       * Single Point Calculation *
                       ****************************

---------------------------------
CARTESIAN COORDINATES (ANGSTROEM)
---------------------------------
  C     60.134000   34.299000   56.783000
  H     60.658000   33.373000   56.993000
  H     60.725000   35.160000   56.462000
  C     58.822000   34.486000   57.043000
  C     58.133000   35.832000   56.867000
  O     58.847000   36.835000   56.596000
  O     56.882000   35.851000   57.014000
  O     58.003000   33.459000   57.386000
  C     57.658000   32.438000   56.132000
  H     57.008000   31.721000   56.646000
  C     58.969000   31.920000   55.777000
  H     59.441000   31.175000   56.416000
  C     59.722000   32.585000   54.873000
  C     59.092000   33.529000   53.942000
  H     59.735000   33.949000   53.163000
  C     57.783000   33.825000   54.012000
  H     57.312000   34.493000   53.285000
  C     56.888000   33.232000   55.065000
  H     56.384000   34.058000   55.595000
  O     55.925000   32.401000   54.411000
  H     55.261000   32.136000   55.067000
  C     61.127000   32.078000   54.586000
  O     61.776000   31.592000   55.548000
  O     61.504000   32.130000   53.392000

----------------------------
CARTESIAN COORDINATES (A.U.)
----------------------------
  NO LB      ZA    FRAG     MASS         X           Y           Z
   0 C     6.0000    0    12.011  113.636791   64.815717  107.304319
   1 H     1.0000    0     1.008  114.627008   63.065830  107.701162
   2 H     1.0000    0     1.008  114.753619   66.442771  106.697717
   3 C     6.0000    0    12.011  111.157471   65.169095  107.795648
   4 C     6.0000    0    12.011  109.855449   67.712667  107.463056
   5 O     8.0000    0    15.999  111.204714   69.608062  106.950940
   6 O     8.0000    0    15.999  107.491402   67.748572  107.740846
   7 O     8.0000    0    15.999  109.609785   63.228347  108.443824
   8 C     6.0000    0    12.011  108.957829   61.298936  106.074107
   9 H     1.0000    0     1.008  107.729507   59.944003  107.045427
  10 C     6.0000    0    12.011  111.435260   60.320058  105.403255
  11 H     1.0000    0     1.008  112.327211   58.912212  106.610790
  12 C     6.0000    0    12.011  112.858224   61.576726  103.694942
  13 C     6.0000    0    12.011  111.667697   63.360628  101.935607
  14 H     1.0000    0     1.008  112.882791   64.154313  100.463510
  15 C     6.0000    0    12.011  109.194045   63.919986  102.067888
  16 H     1.0000    0     1.008  108.303984   65.182324  100.694057
  17 C     6.0000    0    12.011  107.502740   62.799379  104.057770
  18 H     1.0000    0     1.008  106.550318   64.360293  105.059324
  19 O     8.0000    0    15.999  105.682934   61.229016  102.821889
  20 H     1.0000    0     1.008  104.428156   60.728239  104.061549
  21 C     6.0000    0    12.011  115.513289   60.618635  103.152591
  22 O     8.0000    0    15.999  116.739722   59.700228  104.970507
  23 O     8.0000    0    15.999  116.225716   60.716901  100.896258

--------------------------------
INTERNAL COORDINATES (ANGSTROEM)
--------------------------------
 C      0   0   0     0.000000000000     0.00000000     0.00000000
 H      1   0   0     1.084505417229     0.00000000     0.00000000
 H      1   2   0     1.092539701796   117.93164351     0.00000000
 C      1   2   3     1.350523231936   123.39009088   187.86313617
 C      4   1   2     1.522305159947   122.67434883   173.96652034
 O      5   4   1     1.260653005390   118.16330102   352.80190481
 O      5   4   1     1.259750372098   116.69902855   173.20240940
 O      4   1   2     1.357622554321   122.00190160   348.98045717
 C      8   4   1     1.653475733115   113.66402594   288.11578753
 H      9   8   4     1.095803358272    99.90755548   179.89228237
 C      9   8   4     1.453640258111   102.53730260    61.73949047
 H     11   9   8     1.089095955368   119.42828879    75.02693169
 C     11   9   8     1.351462171132   119.37432790   271.29835701
 C     13  11   9     1.467922681888   120.10253542   339.76080639
 H     14  13  11     1.093933270360   116.50519630   186.69342414
 C     14  13  11     1.343873878011   121.77938676     4.34437418
 H     16  14  13     1.093889391118   121.28441277   182.93109904
 C     16  14  13     1.503822795412   121.95981265     1.34480914
 H     18  16  14     1.103264247585   108.24191188   125.61236641
 O     18  16  14     1.430260815376   108.03793090   245.06253599
 H     20  18  16     0.970287070923   108.07730916   189.19455612
 C     13  11   9     1.521000657462   118.48168357   175.93834806
 O     22  13  11     1.258110090572   117.45130791   324.36843138
 O     22  13  11     1.253183546014   116.34910202   141.18221104

---------------------------
INTERNAL COORDINATES (A.U.)
---------------------------
 C      0   0   0     0.000000000000     0.00000000     0.00000000
 H      1   0   0     2.049418229318     0.00000000     0.00000000
 H      1   2   0     2.064600826830   117.93164351     0.00000000
 C      1   2   3     2.552119045858   123.39009088   187.86313617
 C      4   1   2     2.876739844554   122.67434883   173.96652034
 O      5   4   1     2.382288930093   118.16330102   352.80190481
 O      5   4   1     2.380583200370   116.69902855   173.20240940
 O      4   1   2     2.565534820901   122.00190160   348.98045717
 C      8   4   1     3.124616304672   113.66402594   288.11578753
 H      9   8   4     2.070768243765    99.90755548   179.89228237
 C      9   8   4     2.746981985072   102.53730260    61.73949047
 H     11   9   8     2.058093089208   119.42828879    75.02693169
 C     11   9   8     2.553893383794   119.37432790   271.29835701
 C     13  11   9     2.773971854539   120.10253542   339.76080639
 H     14  13  11     2.067234289765   116.50519630   186.69342414
 C     14  13  11     2.539553587971   121.77938676     4.34437418
 H     16  14  13     2.067151370014   121.28441277   182.93109904
 C     16  14  13     2.841813237276   121.95981265     1.34480914
 H     18  16  14     2.084867281283   108.24191188   125.61236641
 O     18  16  14     2.702801241140   108.03793090   245.06253599
 H     20  18  16     1.833576835329   108.07730916   189.19455612
 C     13  11   9     2.874274692117   118.48168357   175.93834806
 O     22  13  11     2.377483517505   117.45130791   324.36843138
 O     22  13  11     2.368173697503   116.34910202   141.18221104

---------------------
BASIS SET INFORMATION
---------------------
There are 3 groups of distinct atoms

 Group   1 Type C   : 7s4p1d contracted to 3s2p1d pattern {511/31/1}
 Group   2 Type H   : 4s1p contracted to 2s1p pattern {31/1}
 Group   3 Type O   : 7s4p1d contracted to 3s2p1d pattern {511/31/1}

Atom   0C    basis set group =>   1
Atom   1H    basis set group =>   2
Atom   2H    basis set group =>   2
Atom   3C    basis set group =>   1
Atom   4C    basis set group =>   1
Atom   5O    basis set group =>   3
Atom   6O    basis set group =>   3
Atom   7O    basis set group =>   3
Atom   8C    basis set group =>   1
Atom   9H    basis set group =>   2
Atom  10C    basis set group =>   1
Atom  11H    basis set group =>   2
Atom  12C    basis set group =>   1
Atom  13C    basis set group =>   1
Atom  14H    basis set group =>   2
Atom  15C    basis set group =>   1
Atom  16H    basis set group =>   2
Atom  17C    basis set group =>   1
Atom  18H    basis set group =>   2
Atom  19O    basis set group =>   3
Atom  20H    basis set group =>   2
Atom  21C    basis set group =>   1
Atom  22O    basis set group =>   3
Atom  23O    basis set group =>   3
---------------------------------
AUXILIARY/J BASIS SET INFORMATION
---------------------------------
There are 3 groups of distinct atoms

 Group   1 Type C   : 12s5p4d2f1g contracted to 6s4p3d1f1g pattern {711111/2111/211/2/1}
 Group   2 Type H   : 5s2p1d contracted to 3s1p1d pattern {311/2/1}
 Group   3 Type O   : 12s5p4d2f1g contracted to 6s4p3d1f1g pattern {711111/2111/211/2/1}

Atom   0C    basis set group =>   1
Atom   1H    basis set group =>   2
Atom   2H    basis set group =>   2
Atom   3C    basis set group =>   1
Atom   4C    basis set group =>   1
Atom   5O    basis set group =>   3
Atom   6O    basis set group =>   3
Atom   7O    basis set group =>   3
Atom   8C    basis set group =>   1
Atom   9H    basis set group =>   2
Atom  10C    basis set group =>   1
Atom  11H    basis set group =>   2
Atom  12C    basis set group =>   1
Atom  13C    basis set group =>   1
Atom  14H    basis set group =>   2
Atom  15C    basis set group =>   1
Atom  16H    basis set group =>   2
Atom  17C    basis set group =>   1
Atom  18H    basis set group =>   2
Atom  19O    basis set group =>   3
Atom  20H    basis set group =>   2
Atom  21C    basis set group =>   1
Atom  22O    basis set group =>   3
Atom  23O    basis set group =>   3


           ************************************************************
           *        Program running with 8 parallel MPI-processes     *
           *              working on a common directory               *
           ************************************************************
------------------------------------------------------------------------------
                             ORCA STARTUP CALCULATIONS
                           -- RI-GTO INTEGRALS CHOSEN --
------------------------------------------------------------------------------
------------------------------------------------------------------------------
                   ___                                                        
                  /   \      - P O W E R E D   B Y -                         
                 /     \                                                     
                 |  |  |   _    _      __       _____    __    __             
                 |  |  |  | |  | |    /  \     |  _  \  |  |  /  |          
                  \  \/   | |  | |   /    \    | | | |  |  | /  /          
                 / \  \   | |__| |  /  /\  \   | |_| |  |  |/  /          
                |  |  |   |  __  | /  /__\  \  |    /   |      \           
                |  |  |   | |  | | |   __   |  |    \   |  |\   \          
                \     /   | |  | | |  |  |  |  | |\  \  |  | \   \       
                 \___/    |_|  |_| |__|  |__|  |_| \__\ |__|  \__/        
                                                                              
                      - O R C A' S   B I G   F R I E N D -                    
                                      &                                       
                       - I N T E G R A L  F E E D E R -                       
                                                                              
 v1 FN, 2020, v2 2021, v3 2022-2024                                           
------------------------------------------------------------------------------


----------------------
SHARK INTEGRAL PACKAGE
----------------------

Number of atoms                             ...     24
Number of basis functions                   ...    264
Number of shells                            ...    120
Maximum angular momentum                    ...      2
Integral batch strategy                     ... SHARK/LIBINT Hybrid
RI-J (if used) integral strategy            ... SPLIT-RIJ (Revised 2003 algorithm where possible)
Printlevel                                  ...      1
Contraction scheme used                     ... SEGMENTED contraction
Prescreening option                         ... SCHWARTZ
   Thresh                                   ... 1.000e-10
   Tcut                                     ... 1.000e-11
   Tpresel                                  ... 1.000e-11 
Coulomb Range Separation                    ... NOT USED
Exchange Range Separation                   ... NOT USED
Multipole approximations                    ... NOT USED
Finite Nucleus Model                        ... NOT USED
CABS basis                                  ... NOT available
Auxiliary Coulomb fitting basis             ... AVAILABLE
   # of basis functions in Aux-J            ...    872
   # of shells in Aux-J                     ...    280
   Maximum angular momentum in Aux-J        ...      4
Auxiliary J/K fitting basis                 ... NOT available
Auxiliary Correlation fitting basis         ... NOT available
Auxiliary 'external' fitting basis          ... NOT available

Checking pre-screening integrals            ... done (  0.0 sec) Dimension = 120
Check shell pair data                       ... done (  0.0 sec)
Shell pair information
Shell pair cut-off parameter TPreSel        ...   1.0e-11
Total number of shell pairs                 ...      7260
Shell pairs after pre-screening             ...      6251
Total number of primitive shell pairs       ...     27260
Primitive shell pairs kept                  ...     15603
          la=0 lb=0:   1779 shell pairs
          la=1 lb=0:   2253 shell pairs
          la=1 lb=1:    748 shell pairs
          la=2 lb=0:    826 shell pairs
          la=2 lb=1:    542 shell pairs
          la=2 lb=2:    103 shell pairs

Calculating one electron integrals          ... done (  0.0 sec)
Calculating RI/J V-Matrix + Cholesky decomp.... done (  0.2 sec)
Calculating Nuclear repulsion               ... done (  0.0 sec) ENN=   1117.894283156761 Eh

Diagonalization of the overlap matrix:
Smallest eigenvalue                        ... 4.537e-04
Time for diagonalization                   ...    0.009 sec
Threshold for overlap eigenvalues          ... 1.000e-07
Number of eigenvalues below threshold      ... 0
Time for construction of square roots      ...    0.015 sec
Total time needed                          ...    0.038 sec

-------------------
DFT GRID GENERATION
-------------------

General Integration Accuracy     IntAcc      ... 4.388
Radial Grid Type                 RadialGrid  ... OptM3 with GC (2021)
Angular Grid (max. ang.)         AngularGrid ... 4 (Lebedev-302)
Angular grid pruning method      GridPruning ... 4 (adaptive)
Weight generation scheme         WeightScheme... mBecke (2022)
Basis function cutoff            BFCut       ... 1.0000e-10
Integration weight cutoff        WCut        ... 1.0000e-14
Partially contracted basis set               ... off
Rotationally invariant grid construction     ... off
Angular grids for H and He will be reduced by one unit

Total number of grid points                  ...   121534
Total number of batches                      ...     1913
Average number of points per batch           ...       63
Average number of grid points per atom       ...     5064

--------------------
COSX GRID GENERATION
--------------------

GRIDX 1
-------
General Integration Accuracy     IntAcc      ... 3.816
Radial Grid Type                 RadialGrid  ... OptM3 with GC (2021)
Angular Grid (max. ang.)         AngularGrid ... 1 (Lebedev-50)
Angular grid pruning method      GridPruning ... 4 (adaptive)
Weight generation scheme         WeightScheme... mBecke (2022)
Basis function cutoff            BFCut       ... 1.0000e-10
Integration weight cutoff        WCut        ... 1.0000e-14
Partially contracted basis set               ... on
Rotationally invariant grid construction     ... off
Angular grids for H and He will be reduced by one unit

Total number of grid points                  ...    15397
Total number of batches                      ...      135
Average number of points per batch           ...      114
Average number of grid points per atom       ...      642
UseSFitting                                  ... on

GRIDX 2
-------
General Integration Accuracy     IntAcc      ... 4.020
Radial Grid Type                 RadialGrid  ... OptM3 with GC (2021)
Angular Grid (max. ang.)         AngularGrid ... 2 (Lebedev-110)
Angular grid pruning method      GridPruning ... 4 (adaptive)
Weight generation scheme         WeightScheme... mBecke (2022)
Basis function cutoff            BFCut       ... 1.0000e-10
Integration weight cutoff        WCut        ... 1.0000e-14
Partially contracted basis set               ... on
Rotationally invariant grid construction     ... off
Angular grids for H and He will be reduced by one unit

Total number of grid points                  ...    34372
Total number of batches                      ...      281
Average number of points per batch           ...      122
Average number of grid points per atom       ...     1432
UseSFitting                                  ... on

GRIDX 3
-------
General Integration Accuracy     IntAcc      ... 4.338
Radial Grid Type                 RadialGrid  ... OptM3 with GC (2021)
Angular Grid (max. ang.)         AngularGrid ... 3 (Lebedev-194)
Angular grid pruning method      GridPruning ... 4 (adaptive)
Weight generation scheme         WeightScheme... mBecke (2022)
Basis function cutoff            BFCut       ... 1.0000e-10
Integration weight cutoff        WCut        ... 1.0000e-14
Partially contracted basis set               ... on
Rotationally invariant grid construction     ... off
Angular grids for H and He will be reduced by one unit

Total number of grid points                  ...    75477
Total number of batches                      ...      601
Average number of points per batch           ...      125
Average number of grid points per atom       ...     3145
UseSFitting                                  ... on
Initializing property integral containers    ... done (  0.0 sec)

SHARK setup successfully completed in   2.6 seconds

Maximum memory used throughout the entire STARTUP-calculation: 33.8 MB


           ************************************************************
           *        Program running with 8 parallel MPI-processes     *
           *              working on a common directory               *
           ************************************************************
-------------------------------------------------------------------------------
                                 ORCA GUESS
                   Start orbitals & Density for SCF / CASSCF
-------------------------------------------------------------------------------

------------
SCF SETTINGS
------------
Hamiltonian:
 Density Functional     Method          .... DFT(GTOs)
 Exchange Functional    Exchange        .... B88
   X-Alpha parameter    XAlpha          ....  0.666667
   Becke's b parameter  XBeta           ....  0.004200
 Correlation Functional Correlation     .... LYP
 LDA part of GGA corr.  LDAOpt          .... VWN-5
 Gradients option       PostSCFGGA      .... off
 Hybrid DFT is turned on
   Fraction HF Exchange ScalHFX         ....  0.200000
   Scaling of DF-GGA-X  ScalDFX         ....  0.720000
   Scaling of DF-GGA-C  ScalDFC         ....  0.810000
   Scaling of DF-LDA-C  ScalLDAC        ....  1.000000
   Perturbative correction              ....  0.000000
   NL short-range parameter             ....  4.800000
 RI-approximation to the Coulomb term is turned on
   Number of AuxJ basis functions       .... 872
   RIJ-COSX (HFX calculated with COS-X)).... on


General Settings:
 Integral files         IntName         .... sp_ts
 Hartree-Fock type      HFTyp           .... RHF
 Total Charge           Charge          ....   -2
 Multiplicity           Mult            ....    1
 Number of Electrons    NEL             ....  118
 Basis Dimension        Dim             ....  264
 Nuclear Repulsion      ENuc            ....   1117.8942831568 Eh

Convergence Acceleration:
 AO-DIIS                CNVDIIS         .... on
   Start iteration      DIISMaxIt       ....    12
   Startup error        DIISStart       ....  0.200000
   # of expansion vecs  DIISMaxEq       ....     5
   Bias factor          DIISBfac        ....   1.050
   Max. coefficient     DIISMaxC        ....  10.000
 MO-DIIS                CNVKDIIS        .... off
 Trust-Rad. Augm. Hess. CNVTRAH         .... auto
   Auto Start mean grad. ratio tolernc. ....  1.125000
   Auto Start start iteration           ....    50
   Auto Start num. interpolation iter.  ....    10
   Max. Number of Micro iterations      ....    24
   Max. Number of Macro iterations      .... Maxiter - #DIIS iter
   Number of Davidson start vectors     ....     2
   Converg. threshold    (grad. norm)   ....   5.000e-05
   Grad. Scal. Fac. for Micro threshold ....   0.100
   Minimum threshold for Micro iter.    ....   1.000e-02
   NR start threshold (gradient norm)   ....   1.000e-04
   Initial trust radius                 ....   0.400
   Minimum AH scaling param. (alpha)    ....   1.000
   Maximum AH scaling param. (alpha)    .... 1000.000
   Quad. conv. algorithm                .... NR
   White noise on init. David. guess    .... on
   Maximum white noise                  ....   0.010
   Pseudo random numbers                .... off
   Inactive MOs                         .... canonical
   Orbital update algorithm             .... Taylor
   Preconditioner                       .... Diag
   Full preconditioner red. dimension   ....   250
 SOSCF                  CNVSOSCF        .... on
   Start iteration      SOSCFMaxIt      ....   150
   Startup grad/error   SOSCFStart      ....  0.003300
   Hessian update       SOSCFHessUp     .... L-BFGS
 Level Shifting         CNVShift        .... on
   Level shift para.    LevelShift      ....    0.2500
   Turn off err/grad.   ShiftErr        ....    0.0010
 Zerner damping         CNVZerner       .... off
 Static damping         CNVDamp         .... on
   Fraction old density DampFac         ....    0.7000
   Max. Damping (<1)    DampMax         ....    0.9800
   Min. Damping (>=0)   DampMin         ....    0.0000
   Turn off err/grad.   DampErr         ....    0.1000

SCF Procedure:
 Maximum # iterations   MaxIter         ....   300
 SCF integral mode      SCFMode         .... Direct
   Integral package                     .... SHARK and LIBINT hybrid scheme
 Reset frequency        DirectResetFreq ....    20
 Integral Threshold     Thresh          ....  1.000e-10 Eh
 Primitive CutOff       TCut            ....  1.000e-11 Eh

Convergence Tolerance:
 Convergence Check Mode ConvCheckMode   .... Total+1el-Energy
 Convergence forced     ConvForced      .... 0
 Energy Change          TolE            ....  1.000e-06 Eh
 1-El. energy change                    ....  1.000e-03 Eh
 Orbital Gradient       TolG            ....  5.000e-05
 Orbital Rotation angle TolX            ....  5.000e-05
 DIIS Error             TolErr          ....  1.000e-06

------------------------------
INITIAL GUESS: MODEL POTENTIAL
------------------------------
Loading Hartree-Fock densities                     ... done
Calculating cut-offs                               ... done
Initializing the effective Hamiltonian             ... done
Setting up the integral package (SHARK)            ... done
Starting the Coulomb interaction                   ... done (   0.1 sec)
Making the grid                                    ... done (   0.3 sec)
Mapping shells                                     ... done
Starting the XC term evaluation                    ... done (   0.1 sec)
  promolecular density results
     # of electrons  =    115.992997829
     EX              =   -102.825819800
     EC              =     -4.060236025
     EX+EC           =   -106.886055825
Transforming the Hamiltonian                       ... done (   0.0 sec)
Diagonalizing the Hamiltonian                      ... done (   0.0 sec)
Back transforming the eigenvectors                 ... done (   0.0 sec)
Now organizing SCF variables                       ... done
                      ------------------
                      INITIAL GUESS DONE (   0.5 sec)
                      ------------------
             **** ENERGY FILE WAS UPDATED (sp_ts.en.tmp) ****
Finished Guess after   0.9 sec
Maximum memory used throughout the entire GUESS-calculation: 19.9 MB


           ************************************************************
           *        Program running with 8 parallel MPI-processes     *
           *              working on a common directory               *
           ************************************************************

-------------------------------------------------------------------------------------------
                                      ORCA LEAN-SCF
                              memory conserving SCF solver
-------------------------------------------------------------------------------------------

--------------------
CPCM SOLVATION MODEL
--------------------
CPCM parameters:
  Epsilon                                         ...       4.0000
  Refrac                                          ...       1.3300
  Rsolv                                           ...       1.3000
  Surface type                                    ... GAUSSIAN VDW
  Discretization scheme                           ... Constant charge density
    Threshold for H atoms                         ...       5.0000 (charges/Ang^2)
    Threshold for non-H atoms                     ...       5.0000 (charges/Ang^2)
  Epsilon function type                           ...         CPCM
Solvent:                                          ... CUSTOM
Radii:
  Scheme                                          ... Element-dependent radii
  Radius for C  used is    3.8550 Bohr (=   2.0400 Ang.)
  Radius for H  used is    2.4944 Bohr (=   1.3200 Ang.)
  Radius for O  used is    3.4469 Bohr (=   1.8240 Ang.)
Calculating surface                               ...        done! (  0.0s)
Cavity surface points                             ...         2082
Cavity Volume                                     ...    1674.9498
Cavity Surface-area                               ...     844.4037
Calculating surface distance matrix               ...        done! (  0.0s)
Performing Cholesky decomposition & store         ...        done! (  0.4s)
Overall time for CPCM initialization              ...                 0.5s

----------------------------------------D-I-I-S--------------------------------------------
Iteration    Energy (Eh)           Delta-E    RMSDP     MaxDP     DIISErr   Damp  Time(sec)
-------------------------------------------------------------------------------------------
               ***  Starting incremental Fock matrix formation  ***
    1    -835.7153562089827119     0.00e+00  4.47e-03  2.18e-01  3.03e-01  0.700   3.5
    2    -835.9893637079937889    -2.74e-01  3.12e-03  1.63e-01  1.31e-01  0.700   2.5
                               ***Turning on AO-DIIS***
    3    -836.0902096277854980    -1.01e-01  1.23e-03  4.08e-02  3.82e-02  0.700   1.7
    4    -836.1533862285057239    -6.32e-02  1.93e-03  4.45e-02  1.81e-02  0.000   1.6
    5    -836.2940575096015436    -1.41e-01  4.65e-04  2.30e-02  5.42e-03  0.000   1.7
                              *** Initializing SOSCF ***
---------------------------------------S-O-S-C-F--------------------------------------
Iteration    Energy (Eh)           Delta-E    RMSDP     MaxDP     MaxGrad    Time(sec)
--------------------------------------------------------------------------------------
    6    -836.2947041844424803    -6.47e-04  1.34e-04  5.66e-03  1.43e-03     1.6
               *** Restarting incremental Fock matrix formation ***
    7    -836.2947282423090201    -2.41e-05  1.04e-04  3.10e-03  2.67e-04     2.7
    8    -836.2947211390744542     7.10e-06  4.21e-05  1.60e-03  6.93e-04     2.1
    9    -836.2947376176921352    -1.65e-05  2.08e-05  5.25e-04  6.48e-05     1.9
   10    -836.2947375197834390     9.79e-08  8.63e-06  2.22e-04  7.86e-05     1.8
                 **** Energy Check signals convergence ****

               *****************************************************
               *                     SUCCESS                       *
               *           SCF CONVERGED AFTER  10 CYCLES          *
               *****************************************************

Recomputing exchange energy using gridx3       ... done (    3.540 sec)
Old exchange energy                            :    -20.886291774 Eh
New exchange energy                            :    -20.886335853 Eh
Exchange energy change after final integration :     -0.000044079 Eh
Total energy after final integration           :   -836.294781599 Eh
             **** ENERGY FILE WAS UPDATED (sp_ts.en.tmp) ****

----------------
TOTAL SCF ENERGY
----------------

Total Energy       :       -836.29478159893779 Eh          -22756.73794 eV

Components:
Nuclear Repulsion  :       1117.89428315676105 Eh           30419.44994 eV
Electronic Energy  :      -1953.96556738009417 Eh          -53170.10620 eV
One Electron Energy:      -3401.09733516364122 Eh          -92548.56357 eV
Two Electron Energy:       1447.13176778354705 Eh           39378.45736 eV
CPCM Dielectric    :         -0.22345329645030 Eh              -6.08047 eV

Virial components:
Potential Energy   :      -1665.74756569795159 Eh          -45327.29566 eV
Kinetic Energy     :        829.45278409901380 Eh           22570.55772 eV
Virial Ratio       :          2.00824880889074

DFT components:
N(Alpha)           :       59.000026243420 electrons
N(Beta)            :       59.000026243420 electrons
N(Total)           :      118.000052486840 electrons
E(X)               :      -83.133101219698 Eh       
E(C)               :       -4.848882472010 Eh       
E(XC)              :      -87.981983691708 Eh       

CPCM Solvation Model Properties:
Surface-charge          :          1.98330462308542
Corrected charge        :          2.00000000000000
Outlying charge corr.   :          0.00001337718355 Eh               0.00036 eV
Free-energy (cav+disp)  :  This term is not implemented in the current solvation scheme

---------------
SCF CONVERGENCE
---------------

  Last Energy change         ...   -9.7909e-08  Tolerance :   1.0000e-06
  Last MAX-Density change    ...    2.2243e-04  Tolerance :   1.0000e-05
  Last RMS-Density change    ...    8.6307e-06  Tolerance :   1.0000e-06
  Last DIIS Error            ...    1.4348e-03  Tolerance :   1.0000e-06
  Last Orbital Gradient      ...    7.8612e-05  Tolerance :   5.0000e-05
  Last Orbital Rotation      ...    9.0288e-05  Tolerance :   5.0000e-05


----------------
ORBITAL ENERGIES
----------------

  NO   OCC          E(Eh)            E(eV) 
   0   2.0000     -19.071753      -518.9688 
   1   2.0000     -19.057899      -518.5918 
   2   2.0000     -18.979299      -516.4530 
   3   2.0000     -18.976327      -516.3721 
   4   2.0000     -18.966411      -516.1023 
   5   2.0000     -18.965824      -516.0863 
   6   2.0000     -10.175361      -276.8857 
   7   2.0000     -10.171458      -276.7794 
   8   2.0000     -10.168268      -276.6926 
   9   2.0000     -10.163486      -276.5625 
  10   2.0000     -10.135594      -275.8035 
  11   2.0000     -10.119299      -275.3601 
  12   2.0000     -10.116839      -275.2932 
  13   2.0000     -10.114470      -275.2287 
  14   2.0000     -10.104965      -274.9701 
  15   2.0000     -10.089024      -274.5363 
  16   2.0000      -0.947049       -25.7705 
  17   2.0000      -0.927470       -25.2377 
  18   2.0000      -0.917350       -24.9624 
  19   2.0000      -0.896333       -24.3905 
  20   2.0000      -0.825667       -22.4675 
  21   2.0000      -0.811128       -22.0719 
  22   2.0000      -0.758538       -20.6409 
  23   2.0000      -0.675273       -18.3751 
  24   2.0000      -0.668394       -18.1879 
  25   2.0000      -0.632914       -17.2225 
  26   2.0000      -0.555120       -15.1056 
  27   2.0000      -0.528368       -14.3776 
  28   2.0000      -0.503016       -13.6878 
  29   2.0000      -0.462453       -12.5840 
  30   2.0000      -0.453232       -12.3331 
  31   2.0000      -0.417702       -11.3663 
  32   2.0000      -0.408052       -11.1037 
  33   2.0000      -0.393003       -10.6941 
  34   2.0000      -0.370586       -10.0842 
  35   2.0000      -0.363063        -9.8794 
  36   2.0000      -0.358718        -9.7612 
  37   2.0000      -0.348690        -9.4883 
  38   2.0000      -0.343684        -9.3521 
  39   2.0000      -0.327987        -8.9250 
  40   2.0000      -0.312440        -8.5019 
  41   2.0000      -0.309610        -8.4249 
  42   2.0000      -0.303320        -8.2538 
  43   2.0000      -0.300455        -8.1758 
  44   2.0000      -0.291773        -7.9395 
  45   2.0000      -0.283639        -7.7182 
  46   2.0000      -0.278203        -7.5703 
  47   2.0000      -0.255365        -6.9488 
  48   2.0000      -0.244890        -6.6638 
  49   2.0000      -0.217596        -5.9211 
  50   2.0000      -0.206026        -5.6063 
  51   2.0000      -0.159723        -4.3463 
  52   2.0000      -0.157431        -4.2839 
  53   2.0000      -0.155182        -4.2227 
  54   2.0000      -0.152044        -4.1373 
  55   2.0000      -0.145136        -3.9493 
  56   2.0000      -0.136751        -3.7212 
  57   2.0000      -0.135919        -3.6985 
  58   2.0000      -0.122945        -3.3455 
  59   0.0000       0.019383         0.5274 
  60   0.0000       0.072944         1.9849 
  61   0.0000       0.105682         2.8758 
  62   0.0000       0.124569         3.3897 
  63   0.0000       0.142516         3.8780 
  64   0.0000       0.153795         4.1850 
  65   0.0000       0.172430         4.6920 
  66   0.0000       0.187621         5.1054 
  67   0.0000       0.205688         5.5970 
  68   0.0000       0.207810         5.6548 
  69   0.0000       0.216233         5.8840 
*Only the first 10 virtual orbitals were printed.

                    ********************************
                    * MULLIKEN POPULATION ANALYSIS *
                    ********************************

-----------------------
MULLIKEN ATOMIC CHARGES
-----------------------
   0 C :    0.032153
   1 H :   -0.015926
   2 H :   -0.021548
   3 C :   -0.020089
   4 C :    0.062023
   5 O :   -0.434815
   6 O :   -0.435318
   7 O :   -0.398983
   8 C :    0.171219
   9 H :   -0.021410
  10 C :   -0.044228
  11 H :   -0.032261
  12 C :   -0.067844
  13 C :    0.041703
  14 H :   -0.036173
  15 C :   -0.063902
  16 H :   -0.020295
  17 C :    0.260663
  18 H :   -0.008578
  19 O :   -0.351199
  20 H :    0.175449
  21 C :    0.082449
  22 O :   -0.432128
  23 O :   -0.420961
Sum of atomic charges:   -2.0000000

--------------------------------
MULLIKEN REDUCED ORBITAL CHARGES
--------------------------------
  0 C s       :     3.066341  s :     3.066341
      pz      :     1.014458  p :     2.876754
      px      :     1.004620
      py      :     0.857675
      dz2     :     0.001896  d :     0.024753
      dxz     :     0.005290
      dyz     :     0.001467
      dx2y2   :     0.007314
      dxy     :     0.008785

  1 H s       :     0.990804  s :     0.990804
      pz      :     0.005148  p :     0.025121
      px      :     0.006772
      py      :     0.013201

  2 H s       :     0.997346  s :     0.997346
      pz      :     0.005608  p :     0.024203
      px      :     0.006769
      py      :     0.011825

  3 C s       :     3.164463  s :     3.164463
      pz      :     0.988126  p :     2.785201
      px      :     0.890181
      py      :     0.906893
      dz2     :     0.005484  d :     0.070425
      dxz     :     0.010621
      dyz     :     0.008094
      dx2y2   :     0.022616
      dxy     :     0.023611

  4 C s       :     3.043974  s :     3.043974
      pz      :     0.866732  p :     2.756421
      px      :     0.928187
      py      :     0.961502
      dz2     :     0.008961  d :     0.137583
      dxz     :     0.026848
      dyz     :     0.012501
      dx2y2   :     0.043094
      dxy     :     0.046179

  5 O s       :     3.711750  s :     3.711750
      pz      :     1.541538  p :     4.709428
      px      :     1.649116
      py      :     1.518774
      dz2     :     0.001745  d :     0.013637
      dxz     :     0.001457
      dyz     :     0.002850
      dx2y2   :     0.002911
      dxy     :     0.004675

  6 O s       :     3.732509  s :     3.732509
      pz      :     1.551927  p :     4.689223
      px      :     1.344925
      py      :     1.792372
      dz2     :     0.001655  d :     0.013586
      dxz     :     0.003946
      dyz     :     0.000108
      dx2y2   :     0.005138
      dxy     :     0.002740

  7 O s       :     3.783194  s :     3.783194
      pz      :     1.504186  p :     4.602591
      px      :     1.668243
      py      :     1.430162
      dz2     :     0.002412  d :     0.013198
      dxz     :     0.002072
      dyz     :     0.003477
      dx2y2   :     0.001989
      dxy     :     0.003248

  8 C s       :     3.070362  s :     3.070362
      pz      :     0.822975  p :     2.708565
      px      :     0.989739
      py      :     0.895851
      dz2     :     0.008009  d :     0.049854
      dxz     :     0.010660
      dyz     :     0.012791
      dx2y2   :     0.006963
      dxy     :     0.011431

  9 H s       :     1.000615  s :     1.000615
      pz      :     0.005372  p :     0.020796
      px      :     0.007451
      py      :     0.007972

 10 C s       :     3.178936  s :     3.178936
      pz      :     0.980627  p :     2.831218
      px      :     0.940384
      py      :     0.910207
      dz2     :     0.005649  d :     0.034073
      dxz     :     0.008098
      dyz     :     0.005708
      dx2y2   :     0.006548
      dxy     :     0.008070

 11 H s       :     1.009075  s :     1.009075
      pz      :     0.007639  p :     0.023186
      px      :     0.006251
      py      :     0.009295

 12 C s       :     3.170685  s :     3.170685
      pz      :     0.936419  p :     2.856120
      px      :     0.993010
      py      :     0.926691
      dz2     :     0.008346  d :     0.041040
      dxz     :     0.009231
      dyz     :     0.007121
      dx2y2   :     0.007862
      dxy     :     0.008480

 13 C s       :     3.205275  s :     3.205275
      pz      :     0.873226  p :     2.718028
      px      :     0.877321
      py      :     0.967480
      dz2     :     0.004644  d :     0.034995
      dxz     :     0.010350
      dyz     :     0.004316
      dx2y2   :     0.007216
      dxy     :     0.008470

 14 H s       :     1.013236  s :     1.013236
      pz      :     0.009586  p :     0.022938
      px      :     0.008021
      py      :     0.005330

 15 C s       :     3.190984  s :     3.190984
      pz      :     0.954659  p :     2.839810
      px      :     0.944439
      py      :     0.940713
      dz2     :     0.003486  d :     0.033107
      dxz     :     0.010812
      dyz     :     0.004585
      dx2y2   :     0.006307
      dxy     :     0.007917

 16 H s       :     0.997494  s :     0.997494
      pz      :     0.008664  p :     0.022801
      px      :     0.005551
      py      :     0.008586

 17 C s       :     2.917845  s :     2.917845
      pz      :     0.935531  p :     2.753400
      px      :     0.908500
      py      :     0.909369
      dz2     :     0.008805  d :     0.068092
      dxz     :     0.017151
      dyz     :     0.015006
      dx2y2   :     0.010808
      dxy     :     0.016322

 18 H s       :     0.985578  s :     0.985578
      pz      :     0.007446  p :     0.023000
      px      :     0.004620
      py      :     0.010934

 19 O s       :     3.732686  s :     3.732686
      pz      :     1.543107  p :     4.606375
      px      :     1.387817
      py      :     1.675451
      dz2     :     0.001827  d :     0.012138
      dxz     :     0.004910
      dyz     :     0.002657
      dx2y2   :     0.001264
      dxy     :     0.001478

 20 H s       :     0.758186  s :     0.758186
      pz      :     0.022949  p :     0.066365
      px      :     0.025003
      py      :     0.018413

 21 C s       :     3.029344  s :     3.029344
      pz      :     0.911033  p :     2.747868
      px      :     0.955747
      py      :     0.881089
      dz2     :     0.044488  d :     0.140338
      dxz     :     0.040698
      dyz     :     0.033001
      dx2y2   :     0.011399
      dxy     :     0.010753

 22 O s       :     3.734586  s :     3.734586
      pz      :     1.509308  p :     4.683695
      px      :     1.643763
      py      :     1.530624
      dz2     :     0.002946  d :     0.013847
      dxz     :     0.004205
      dyz     :     0.003304
      dx2y2   :     0.001664
      dxy     :     0.001728

 23 O s       :     3.720800  s :     3.720800
      pz      :     1.388308  p :     4.686073
      px      :     1.709025
      py      :     1.588740
      dz2     :     0.005954  d :     0.014087
      dxz     :     0.003821
      dyz     :     0.003488
      dx2y2   :     0.000369
      dxy     :     0.000456



                     *******************************
                     * LOEWDIN POPULATION ANALYSIS *
                     *******************************

----------------------
LOEWDIN ATOMIC CHARGES
----------------------
   0 C :   -0.078757
   1 H :    0.007719
   2 H :    0.010813
   3 C :   -0.043841
   4 C :   -0.061858
   5 O :   -0.408183
   6 O :   -0.400491
   7 O :   -0.203712
   8 C :    0.107946
   9 H :    0.019283
  10 C :   -0.053634
  11 H :    0.011856
  12 C :   -0.045863
  13 C :   -0.016992
  14 H :    0.019350
  15 C :   -0.047146
  16 H :    0.018918
  17 C :    0.055221
  18 H :    0.013052
  19 O :   -0.163920
  20 H :    0.080163
  21 C :   -0.041032
  22 O :   -0.395334
  23 O :   -0.383558

-------------------------------
LOEWDIN REDUCED ORBITAL CHARGES
-------------------------------
  0 C s       :     2.895053  s :     2.895053
      pz      :     1.006412  p :     3.115992
      px      :     1.072030
      py      :     1.037550
      dz2     :     0.005269  d :     0.067712
      dxz     :     0.011941
      dyz     :     0.003514
      dx2y2   :     0.020625
      dxy     :     0.026363

  1 H s       :     0.915892  s :     0.915892
      pz      :     0.017232  p :     0.076389
      px      :     0.019744
      py      :     0.039413

  2 H s       :     0.917330  s :     0.917330
      pz      :     0.018092  p :     0.071857
      px      :     0.018966
      py      :     0.034798

  3 C s       :     2.897198  s :     2.897198
      pz      :     0.969974  p :     2.976819
      px      :     1.042976
      py      :     0.963869
      dz2     :     0.013442  d :     0.169824
      dxz     :     0.023654
      dyz     :     0.016768
      dx2y2   :     0.057081
      dxy     :     0.058878

  4 C s       :     2.865991  s :     2.865991
      pz      :     0.849755  p :     2.874685
      px      :     1.010416
      py      :     1.014514
      dz2     :     0.020775  d :     0.321183
      dxz     :     0.054889
      dyz     :     0.026029
      dx2y2   :     0.105371
      dxy     :     0.114118

  5 O s       :     3.571099  s :     3.571099
      pz      :     1.541888  p :     4.812681
      px      :     1.693537
      py      :     1.577256
      dz2     :     0.003389  d :     0.024403
      dxz     :     0.002227
      dyz     :     0.004150
      dx2y2   :     0.005168
      dxy     :     0.009469

  6 O s       :     3.569787  s :     3.569787
      pz      :     1.546885  p :     4.806208
      px      :     1.462701
      py      :     1.796622
      dz2     :     0.003583  d :     0.024496
      dxz     :     0.005356
      dyz     :     0.000147
      dx2y2   :     0.010881
      dxy     :     0.004529

  7 O s       :     3.529249  s :     3.529249
      pz      :     1.508682  p :     4.650517
      px      :     1.684135
      py      :     1.457700
      dz2     :     0.003657  d :     0.023946
      dxz     :     0.003251
      dyz     :     0.006641
      dx2y2   :     0.003965
      dxy     :     0.006431

  8 C s       :     2.891261  s :     2.891261
      pz      :     0.896361  p :     2.885460
      px      :     1.060479
      py      :     0.928620
      dz2     :     0.017170  d :     0.115333
      dxz     :     0.025412
      dyz     :     0.029157
      dx2y2   :     0.015932
      dxy     :     0.027662

  9 H s       :     0.915056  s :     0.915056
      pz      :     0.017560  p :     0.065661
      px      :     0.022622
      py      :     0.025479

 10 C s       :     2.866603  s :     2.866603
      pz      :     1.028739  p :     3.095085
      px      :     1.032026
      py      :     1.034320
      dz2     :     0.013479  d :     0.091945
      dxz     :     0.023020
      dyz     :     0.015969
      dx2y2   :     0.017907
      dxy     :     0.021570

 11 H s       :     0.915929  s :     0.915929
      pz      :     0.023381  p :     0.072215
      px      :     0.020807
      py      :     0.028027

 12 C s       :     2.896043  s :     2.896043
      pz      :     0.995876  p :     3.044482
      px      :     1.067925
      py      :     0.980681
      dz2     :     0.019214  d :     0.105338
      dxz     :     0.024385
      dyz     :     0.019455
      dx2y2   :     0.020119
      dxy     :     0.022166

 13 C s       :     2.870116  s :     2.870116
      pz      :     1.001130  p :     3.054731
      px      :     1.070598
      py      :     0.983003
      dz2     :     0.012110  d :     0.092145
      dxz     :     0.027733
      dyz     :     0.010267
      dx2y2   :     0.020053
      dxy     :     0.021981

 14 H s       :     0.911734  s :     0.911734
      pz      :     0.028441  p :     0.068916
      px      :     0.023645
      py      :     0.016830

 15 C s       :     2.877800  s :     2.877800
      pz      :     1.005316  p :     3.083616
      px      :     1.072401
      py      :     1.005898
      dz2     :     0.009749  d :     0.085731
      dxz     :     0.028248
      dyz     :     0.010718
      dx2y2   :     0.017015
      dxy     :     0.020000

 16 H s       :     0.912294  s :     0.912294
      pz      :     0.026750  p :     0.068789
      px      :     0.016365
      py      :     0.025674

 17 C s       :     2.844126  s :     2.844126
      pz      :     1.015504  p :     2.945201
      px      :     0.947372
      py      :     0.982325
      dz2     :     0.016762  d :     0.155452
      dxz     :     0.042790
      dyz     :     0.037133
      dx2y2   :     0.021748
      dxy     :     0.037018

 18 H s       :     0.911947  s :     0.911947
      pz      :     0.022345  p :     0.075001
      px      :     0.016286
      py      :     0.036370

 19 O s       :     3.456360  s :     3.456360
      pz      :     1.592733  p :     4.684481
      px      :     1.419080
      py      :     1.672669
      dz2     :     0.002296  d :     0.023078
      dxz     :     0.010186
      dyz     :     0.004175
      dx2y2   :     0.002755
      dxy     :     0.003666

 20 H s       :     0.741961  s :     0.741961
      pz      :     0.066303  p :     0.177876
      px      :     0.063490
      py      :     0.048083

 21 C s       :     2.851439  s :     2.851439
      pz      :     1.015193  p :     2.863625
      px      :     0.979288
      py      :     0.869144
      dz2     :     0.112156  d :     0.325969
      dxz     :     0.093310
      dyz     :     0.071241
      dx2y2   :     0.025604
      dxy     :     0.023659

 22 O s       :     3.570175  s :     3.570175
      pz      :     1.590352  p :     4.800383
      px      :     1.665711
      py      :     1.544320
      dz2     :     0.005217  d :     0.024777
      dxz     :     0.008296
      dyz     :     0.005908
      dx2y2   :     0.002211
      dxy     :     0.003145

 23 O s       :     3.567852  s :     3.567852
      pz      :     1.490080  p :     4.790578
      px      :     1.713195
      py      :     1.587303
      dz2     :     0.012137  d :     0.025129
      dxz     :     0.007141
      dyz     :     0.004729
      dx2y2   :     0.000582
      dxy     :     0.000540



                      *****************************
                      * MAYER POPULATION ANALYSIS *
                      *****************************

  NA   - Mulliken gross atomic population
  ZA   - Total nuclear charge
  QA   - Mulliken gross atomic charge
  VA   - Mayer's total valence
  BVA  - Mayer's bonded valence
  FA   - Mayer's free valence

  ATOM       NA         ZA         QA         VA         BVA        FA
  0 C      5.9678     6.0000     0.0322     3.8568     3.8568    -0.0000
  1 H      1.0159     1.0000    -0.0159     1.0397     1.0397     0.0000
  2 H      1.0215     1.0000    -0.0215     1.0196     1.0196    -0.0000
  3 C      6.0201     6.0000    -0.0201     3.9344     3.9344    -0.0000
  4 C      5.9380     6.0000     0.0620     4.5088     4.5088     0.0000
  5 O      8.4348     8.0000    -0.4348     2.0651     2.0651    -0.0000
  6 O      8.4353     8.0000    -0.4353     2.0374     2.0374     0.0000
  7 O      8.3990     8.0000    -0.3990     2.0585     2.0585     0.0000
  8 C      5.8288     6.0000     0.1712     3.8814     3.8814     0.0000
  9 H      1.0214     1.0000    -0.0214     0.9984     0.9984     0.0000
 10 C      6.0442     6.0000    -0.0442     3.9322     3.9322     0.0000
 11 H      1.0323     1.0000    -0.0323     1.0258     1.0258     0.0000
 12 C      6.0678     6.0000    -0.0678     3.7163     3.7163     0.0000
 13 C      5.9583     6.0000     0.0417     3.8994     3.8994    -0.0000
 14 H      1.0362     1.0000    -0.0362     1.0180     1.0180    -0.0000
 15 C      6.0639     6.0000    -0.0639     3.8568     3.8568     0.0000
 16 H      1.0203     1.0000    -0.0203     0.9874     0.9874     0.0000
 17 C      5.7393     6.0000     0.2607     3.8627     3.8627    -0.0000
 18 H      1.0086     1.0000    -0.0086     1.0816     1.0816    -0.0000
 19 O      8.3512     8.0000    -0.3512     2.0445     2.0445     0.0000
 20 H      0.8246     1.0000     0.1754     1.0119     1.0119     0.0000
 21 C      5.9176     6.0000     0.0824     4.5250     4.5250     0.0000
 22 O      8.4321     8.0000    -0.4321     2.0427     2.0427    -0.0000
 23 O      8.4210     8.0000    -0.4210     2.0748     2.0748    -0.0000

  Mayer bond orders larger than 0.100000
B(  0-C ,  1-H ) :   0.8949 B(  0-C ,  2-H ) :   0.9196 B(  0-C ,  3-C ) :   1.8494 
B(  3-C ,  4-C ) :   0.8444 B(  3-C ,  7-O ) :   1.1463 B(  4-C ,  5-O ) :   1.8749 
B(  4-C ,  6-O ) :   1.7848 B(  5-O ,  6-O ) :   0.1152 B(  6-O , 18-H ) :   0.1124 
B(  7-O ,  8-C ) :   0.7756 B(  8-C ,  9-H ) :   0.9224 B(  8-C , 10-C ) :   1.0836 
B(  8-C , 17-C ) :   0.9668 B( 10-C , 11-H ) :   0.9504 B( 10-C , 12-C ) :   1.6964 
B( 12-C , 13-C ) :   1.0456 B( 12-C , 21-C ) :   0.8447 B( 13-C , 14-H ) :   0.9786 
B( 13-C , 15-C ) :   1.7866 B( 15-C , 16-H ) :   0.9694 B( 15-C , 17-C ) :   0.9780 
B( 17-C , 18-H ) :   0.8756 B( 17-C , 19-O ) :   1.0220 B( 19-O , 20-H ) :   0.9712 
B( 21-C , 22-O ) :   1.8059 B( 21-C , 23-O ) :   1.8707 B( 22-O , 23-O ) :   0.1160 


-------
TIMINGS
-------

Total SCF time: 0 days 0 hours 0 min 25 sec 

Total time                  ....      25.981 sec
Sum of individual times     ....      25.559 sec  ( 98.4%)

SCF preparation             ....       1.171 sec  (  4.5%)
Fock matrix formation       ....      22.709 sec  ( 87.4%)
  Startup                   ....       0.230 sec  (  1.0% of F)
  Split-RI-J                ....       1.958 sec  (  8.6% of F)
  Chain of spheres X        ....      13.852 sec  ( 61.0% of F)
  XC integration            ....       3.699 sec  ( 16.3% of F)
    XC Preparation          ....       0.000 sec  (  0.0% of XC)
    Basis function eval.    ....       0.806 sec  ( 21.8% of XC)
    Density eval.           ....       0.562 sec  ( 15.2% of XC)
    XC-Functional eval.     ....       0.166 sec  (  4.5% of XC)
    XC-Potential eval.      ....       0.686 sec  ( 18.5% of XC)
  CPCM terms                ....       2.208 sec  (  9.7% of F)
Diagonalization             ....       0.000 sec  (  0.0%)
Density matrix formation    ....       0.414 sec  (  1.6%)
Total Energy calculation    ....       0.180 sec  (  0.7%)
Population analysis         ....       0.072 sec  (  0.3%)
Orbital Transformation      ....       0.100 sec  (  0.4%)
Orbital Orthonormalization  ....       0.000 sec  (  0.0%)
DIIS solution               ....       0.679 sec  (  2.6%)
SOSCF solution              ....       0.233 sec  (  0.9%)
Finished LeanSCF after  26.1 sec

Maximum memory used throughout the entire LEANSCF-calculation: 31.1 MB


-------------------------------------------------------------------------------
                          DFT DISPERSION CORRECTION                            
                                                                               
                              DFTD3 V3.1  Rev 1                                
                          USING Becke-Johnson damping                          
-------------------------------------------------------------------------------
The B3LYP functional is recognized
Active option DFTDOPT                   ...         4   

molecular C6(AA) [au] = 6926.318385 


            DFT-D V3
 parameters
 s6 scaling factor         :     1.0000 
 a1 scaling factor         :     0.3981 
 s8 scaling factor         :     1.9889 
 a2 scaling factor         :     4.4211 
 ad hoc parameters k1-k3   :    16.0000     1.3333    -4.0000 

 Edisp/kcal,au: -34.255778203823  -0.054590051570 
 E6   /kcal   : -16.014434211 
 E8   /kcal   : -18.241343993 
 % E8         :  53.250414819 

-------------------------   ----------------
Dispersion correction           -0.054590052
-------------------------   ----------------


-------------------------   --------------------
FINAL SINGLE POINT ENERGY      -836.349371650508
-------------------------   --------------------



           ************************************************************
           *        Program running with 8 parallel MPI-processes     *
           *              working on a common directory               *
           ************************************************************

------------------------------------------------------------------------------
                              ORCA PROPERTY CALCULATIONS
------------------------------------------------------------------------------

GBWName                                 ... sp_ts.gbw
Number of atoms                         ...     24
Number of basis functions               ...    264
Max core memory                         ...   3000 MB

Electric properties:
Dipole moment                           ... YES
Quadrupole moment                       ...  NO
Static polarizability (Dipole/Dipole)   ...  NO
Static polarizability (Dipole/Quad.)    ...  NO
Static polarizability (Quad./Quad.)     ...  NO
Static polarizability (Velocity)        ...  NO

Atomic electric properties:
Dipole moment                           ...  NO
Quadrupole moment                       ...  NO
Static polarizability                   ...  NO

Choice of electric origin               ... Center of mass
Position of electric origin             ...   111.134649    63.381828   105.066402

General magnetic properties:
Magnetizability                         ...  NO

EPR properties:
g-Tensor (aka g-matrix)                 ...  NO
Zero-Field splitting spin-orbit         ...  NO
Zero-field splitting spin-spin          ...  NO
Hyperfine couplings                     ...  NO (   0 nuclei)
Quadrupole couplings                    ...  NO (   0 nuclei)
Contact density                         ...  NO (   0 nuclei)

NMR properties:
Chemical shifts                         ...  NO (   0 nuclei)
Spin-rotation constants                 ...  NO (   0 nuclei)
Spin-spin couplings                     ...  NO (   0 nuclei,    0 pairs)

Choice of magnetic origin               ... GIAO
Position of magnetic origin             ...     0.000000     0.000000     0.000000

Properties with geometric perturbations:
SCF Hessian                             ...  NO
IR spectrum                             ...  NO
VCD spectrum                            ...  NO
X-ray spectroscopy properties:
SCF XES/XAS/RIXS spectra                ...  NO


-------------
DIPOLE MOMENT
-------------

Method             : SCF
Type of density    : Electron Density
Multiplicity       :   1
Irrep              :   0
Energy             :  -836.2947815989377887 Eh
Relativity type    : 
Basis              : AO
                                X                 Y                 Z
Electronic contribution:      0.610712829      -0.043135142       0.828459676
Nuclear contribution   :     -3.709703866      -2.102044260      -1.079905381
                        -----------------------------------------
Total Dipole Moment    :     -3.098991037      -2.145179402      -0.251445705
                        -----------------------------------------
Magnitude (a.u.)       :      3.777401893
Magnitude (Debye)      :      9.601392576



--------------------
Rotational spectrum 
--------------------
 
Rotational constants in cm-1:             0.025553             0.015010             0.012119 
Rotational constants in MHz :           766.047056           449.990047           363.308747 

Dipole components along the rotational axes: 
x,y,z [a.u.] :     0.614322    -3.507437     1.260659 
x,y,z [Debye]:     1.561484    -8.915196     3.204340 

 

Dipole moment calculation done in   0.0 sec 

Maximum memory used throughout the entire PROP-calculation: 13.8 MB

--------------------------------
SUGGESTED CITATIONS FOR THIS RUN
--------------------------------

Below you find a list of papers that are relevant to this ORCA run
We neither can nor want to force you to cite these papers, but we appreciate if you do
You receive ORCA, which is the product of decades of hard work by many enthusiastic individuals, for free
The only thing we kindly ask in return is that you cite our papers,
We deeply appreciate it, if you show your appreciation for ORCA by not just citing the generic ORCA reference.

Please note that relegating all ORCA citations to the supporting information does *not* help us.
SI sections are not indexed - citations you put there will not count into any citation statistics
But we need these citations in order to attract the funding resources that allow us to do what we are doing

Therefore, if you are a happy ORCA user, please consider citing a few of the papers listed below in the main body of your paper

In addition to the list printed below, the program has created the file sp_ts.bibtex that contains the list in bibtex format
You can import this file easily into all common literature databanks and citation aid programs


List of essential papers. We consider these as the minimum necessary citations

  1. Neese,F.
     Software update: the ORCA program system, version 5.0
     WIRES Comput. Molec. Sci., 2022 12(1)e1606
     doi.org/10.1002/wcms.1606

List of papers to cite with high priority. The work reported in these papers was absolutely
necessary for this run to complete.
Our perspective: the developers of density functionals and basis sets usually get cited in chemistry papers
Good! But without the algorithms to do something with them, the functionals or basis sets would not do anything.
Hence, in our opinion, the algorithm design and method developments papers are equally worthy of getting cited

  1. Neese,F.
     An improvement of the resolution of the identity approximation for the formation of the Coulomb matrix
     J. Comp. Chem., 2003 24(14)1740-1747
     doi.org/10.1002/jcc.10318
  2. Neese,F.; Wennmohs,F.; Hansen,A.; Becker,U.
     Efficient, approximate and parallel Hartree-Fock and hybrid DFT calculations. A 'chain-of-spheres' algorithm for the Hartree-Fock exchange
     Chem. Phys., 2009 356(1-3)98-109
     doi.org/10.1016/j.chemphys.2008.10.036
  3. Garcia-Rates,M.; Neese,F.
     Effect of the Solute Cavity on the Solvation Energy and its Derivatives within the Framework of the Gaussian Charge Scheme
     J. Comput. Chem., 2020 41 922-939
     doi.org/10.1002/jcc.26139
  4. Helmich-Paris,B.; de Souza,B.; Neese,F.; Izsák,R.
     An improved chain of spheres for exchange algorithm
     J. Chem. Phys., 2021 155 104109
     doi.org/doi: 10.1063/5.0058766.
  5. Neese,F.
     The SHARK Integral Generation and Digestion System
     J. Comp. Chem., 2022  1-16
     doi.org/10.1002/jcc.26942
  6. Grimme,S.; Antony,J.; Ehrlich,S.; Krieg,H.
     A consistent and accurate ab initio parametrization of density functional dispersion correction (DFT-D) for the 94 elements H-Pu
     J. Chem. Phys., 2010 132 154104
     doi.org/10.1063/1.3382344
  7. Grimme,S.; Ehrlich,S.; Goerigk,L.
     Effect of the damping function in dispersion corrected density functional theory
     J. Comput. Chem., 2011 32(7)1456-1465
     doi.org/10.1002/jcc.21759

List of suggested additional citations. These are papers that are important in the 'surrounding' of 
of this run, or papers that preceded the highly important papers. If you like your results we are grateful for a citation.

  1. Izsak,R.; Neese,F.
     An overlap fitted chain of spheres exchange method
     J. Chem. Phys., 2011 135 144105
     doi.org/10.1063/1.3646921
  2. Izsak,R.; Hansen,A.; Neese,F.
     The resolution of identity and chain of spheres approximations for the LPNO-CCSD singles Fock term
     Molec. Phys., 2012 110 2413-2417
     doi.org/10.1080/00268976.2012.687466
  3. Neese,F.
     The ORCA program system
     WIRES Comput. Molec. Sci., 2012 2(1)73-78
     doi.org/10.1002/wcms.81
  4. Izsak,R.; Neese,F.; Klopper,W.
     Robust fitting techniques in the chain of spheres approximation to the Fock exchange: The role of the complementary space
     J. Chem. Phys., 2013 139 
     doi.org/10.1063/1.4819264
  5. Neese,F.
     Software update: the ORCA program system, version 4.0
     WIRES Comput. Molec. Sci., 2018 8(1)1-6
     doi.org/10.1002/wcms.1327
  6. Neese,F.; Wennmohs,F.; Becker,U.; Riplinger,C.
     The ORCA quantum chemistry program package
     J. Chem. Phys., 2020 152 Art. No. L224108
     doi.org/10.1063/5.0004608

List of optional additional citations

  1. Neese,F.
     Approximate second-order SCF convergence for spin unrestricted wavefunctions
     Chem. Phys. Lett., 2000 325(1-3)93-98
     doi.org/10.1016/s0009-2614(00)00662-x

Timings for individual modules:

Sum of individual times          ...       33.692 sec (=   0.562 min)
Startup calculation              ...        3.715 sec (=   0.062 min)  11.0 %
SCF iterations                   ...       28.749 sec (=   0.479 min)  85.3 %
Property calculations            ...        1.228 sec (=   0.020 min)   3.6 %
                             ****ORCA TERMINATED NORMALLY****
TOTAL RUN TIME: 0 days 0 hours 0 minutes 37 seconds 345 msec
