
                                 *****************
                                 * O   R   C   A *
                                 *****************

                                            #,                                       
                                            ###                                      
                                            ####                                     
                                            #####                                    
                                            ######                                   
                                           ########,                                 
                                     ,,################,,,,,                         
                               ,,#################################,,                 
                          ,,##########################################,,             
                       ,#########################################, ''#####,          
                    ,#############################################,,   '####,        
                  ,##################################################,,,,####,       
                ,###########''''           ''''###############################       
              ,#####''   ,,,,##########,,,,          '''####'''          '####       
            ,##' ,,,,###########################,,,                        '##       
           ' ,,###''''                  '''############,,,                           
         ,,##''                                '''############,,,,        ,,,,,,###''
      ,#''                                            '''#######################'''  
     '                                                          ''''####''''         
             ,#######,   #######,   ,#######,      ##                                
            ,#'     '#,  ##    ##  ,#'     '#,    #''#        ,####,   ,####,        
            ##       ##  ##   ,#'  ##            #'  '#       #'       #'  '#        
            ##       ##  #######   ##           ,######,      #####,   #    #        
            '#,     ,#'  ##    ##  '#,     ,#' ,#      #,     #,   #   #,  ,#        
             '#######'   ##     ##  '#######'  #'      '#     '####' # '####'        



                #########################################################
                #                        -***-                          #
                #          Department of theory and spectroscopy        #
                #                                                       #
                #                      Frank Neese                      #
                #                                                       #
                #     Directorship, Architecture, Infrastructure        #
                #                    SHARK, DRIVERS                     #
                #        Core code/Algorithms in most modules           #
                #                                                       #
                #        Max Planck Institute fuer Kohlenforschung      #
                #                Kaiser Wilhelm Platz 1                 #
                #                 D-45470 Muelheim/Ruhr                 #
                #                      Germany                          #
                #                                                       #
                #                  All rights reserved                  #
                #                        -***-                          #
                #########################################################


                         Program Version 6.0.1  -  RELEASE   -


 With contributions from (in alphabetic order):
[Max-Planck-Institut fuer Kohlenforschung]                               
  Daniel Aravena         : Magnetic Suceptibility                        
  Michael Atanasov       : Ab Initio Ligand Field Theory (pilot matlab implementation)
  Alexander A. Auer      : GIAO ZORA, VPT2 properties, NMR spectrum      
  Ute Becker             : All parallelization in ORCA, NUMFREQ, NUMCALC 
  Giovanni Bistoni       : ED, misc. LED, open-shell LED, HFLD           
  Martin Brehm           : Molecular dynamics                            
  Dmytro Bykov           : pre 5.0 version of the SCF Hessian            
  Marcos Casanova-Páez   : Triplet and SCS-CIS(D). UHF-(DLPNO)-IP/EA/STEOM-CCSD. UHF-CVS-IP/STEOM-CCSD   
  Vijay G. Chilkuri      : MRCI spin determinant printing, contributions to CSF-ICE 
  Pauline Colinet        : FMM embedding                                 
  Dipayan Datta          : RHF DLPNO-CCSD density                        
  Achintya Kumar Dutta   : EOM-CC, STEOM-CC                              
  Nicolas Foglia         : Exact transition moments, OPA infrastructure, MCD improvements    
  Dmitry Ganyushin       : Spin-Orbit,Spin-Spin,Magnetic field MRCI      
  Miquel Garcia-Rates    : C-PCM and meta-GGA Hessian, CCSD/C-PCM, Gaussian charge scheme 
  Tiago L. C. Gouveia    : GS-ROHF, GS-ROCIS                             
  Yang Guo               : DLPNO-NEVPT2, F12-NEVPT2, CIM, IAO-localization        
  Andreas Hansen         : Spin unrestricted coupled pair/coupled cluster methods 
  Ingolf Harden          : AUTO-CI MPn and infrastructure                
  Benjamin Helmich-Paris : MC-RPA, TRAH-(SCF,CASSCF), AVAS, COSX integrals, SCF dyn. polar. 
  Lee Huntington         : MR-EOM, pCC                                   
  Robert Izsak           : Overlap fitted RIJCOSX, COSX-SCS-MP3, EOM     
  Riya Kayal             : Wick's Theorem for AUTO-CI, AUTO-CI UHF-CCSDT 
  Emily Kempfer          : AUTO-CI, RHF CISDT and CCSDT                  
  Christian Kollmar      : KDIIS, OOCD, Brueckner-CCSD(T), CCSD density, CASPT2, CASPT2-K, improved NEVPT2 
  Axel Koslowski         : Symmetry handling                             
  Simone Kossmann        : meta-GGA functionals, TD-DFT gradient, OOMP2, (MP2 Hessian; deprecated post 5.0) 
  Lucas Lang             : DCDCAS                                        
  Marvin Lechner         : AUTO-CI (C++ implementation), FIC-MRCC        
  Spencer Leger          : CASSCF response                               
  Dagmar Lenk            : GEPOL surface, SMD, ORCA-2-JSON               
  Dimitrios Liakos       : Extrapolation schemes; Compound Job, initial MDCI parallelization 
  Dimitrios Manganas     : Further ROCIS development; embedding schemes. LFT, Crystal Embedding 
  Dimitrios Pantazis     : SARC Basis sets                               
  Anastasios Papadopoulos: AUTO-CI, single reference methods and gradients 
  Taras Petrenko         : pre 6.0 DFT Hessian and TD-DFT gradient, (ASA, deprecated), ECA, 1-Electron XAS/XES, NRVS 
  Peter Pinski           : DLPNO-MP2, DLPNO-MP2 Gradient                 
  Christoph Reimann      : Effective Core Potentials                     
  Marius Retegan         : Local ZFS, SOC                                
  Christoph Riplinger    : Optimizer, TS searches, QM/MM, DLPNO-CCSD(T), (RO)-DLPNO pert. Triples 
  Michael Roemelt        : Original ROCIS implementation                 
  Masaaki Saitow         : Open-shell DLPNO-CCSD energy and density      
  Barbara Sandhoefer     : DKH picture change effects                    
  Kantharuban Sivalingam : CASSCF convergence/infrastructure, NEVPT2 and variants, FIC-MRCI 
  Bernardo de Souza      : ESD, SOC TD-DFT                               
  Georgi L. Stoychev     : AutoAux, RI-MP2 NMR, DLPNO-MP2 response, X2C  
  Van Anh Tran           : RI-MP2 g-tensors                              
  Willem Van den Heuvel  : Paramagnetic NMR                              
  Zikuan Wang            : NOTCH, Electric field optimization            
  Frank Wennmohs         : Technical directorship and infrastructure     
  Hang Xu                : AUTO-CI-Response properties                   
                                                                         
[FACCTs GmbH]                                                            
  Markus Bursch, Miquel Garcia-Rates, Christoph Riplinger, Bernardo de Souza, Georgi L. Stoychev 
                                                                 
  APM, Basis sets (HGBS, AHGBS, def-TZVP (Ac-Lr), def2-XVPD (La-Lu)), CI-OPT, improved COSX, DLPNO-Multilevel,           
  DOCKER, DRACO, updates on ESD, GOAT, IRC, LR-CPCM, MBIS, meta-GGA TD-DFT gradient, ML-optimized integration grids, 
  MM, NACMEs, nearIR, NEB, NEB-TS, NL-DFT gradient (VV10), 2- and 3-layer-ONIOM, interface openCOSMO-RS, QMMM,   
  Crystal-QMMM, SF, symmetry and pop. for TD-DFT, r2SCAN hybrids, SOLVATOR                                   
                                                                         
[Other institutions]                                                     
  V. Asgeirsson          : NEB                                           
  Christoph Bannwarth    : sTDA-DFT, sTD-DFT, PBEh-3c, B97-3c, D3        
  Sebastian Ehlert       : rSCAN, r2SCAN, r2SCAN-3c, D4, dhf basis sets  
  Marvin Friede          : D4 for Fr, Ra, Ac-Lr                          
  Lars Goerigk           : TD-DFT with DH, B97 family of functionals     
  Stefan Grimme          : VdW corrections, initial TS optimization, DFT functionals, gCP, sTDA/sTD-DF 
  Waldemar Hujo          : DFT-NL                                        
  H. Jonsson             : NEB                                           
  Holger Kruse           : gCP                                           
  Marcel Mueller         : wB97X-3c, vDZP basis set                      
  Hagen Neugebauer       : wr2SCAN                                       
  Tobias Risthaus        : range-separated hybrid DFT                    
  Lukas Wittmann         : regularized MP2, r2SCAN double-hybrids, wr2SCAN        
                                                                         
We gratefully acknowledge several colleagues who have allowed us to      
interface, adapt or use parts of their codes:                            
  Ed Valeev, F. Pavosevic, A. Kumar             : LibInt (2-el integral package), F12 methods 
  Garnet Chan, S. Sharma, J. Yang, R. Olivares  : DMRG                   
  Ulf Ekstrom                                   : XCFun DFT Library      
  Mihaly Kallay                                 : mrcc  (arbitrary order and MRCC methods)
  Frank Weinhold                                : gennbo (NPA and NBO analysis)           
  Simon Mueller                                 : openCOSMO-RS                            
  Christopher J. Cramer and Donald G. Truhlar   : smd solvation model                     
  S Lehtola, MJT Oliveira, MAL Marques          : LibXC Library                           
  Liviu Ungur et al                             : ANISO software                          


 Your calculation uses the libint2 library for the computation of 2-el integrals
 For citations please refer to: http://libint.valeyev.net

 Your ORCA version has been built with support for libXC version: 6.2.2
 For citations please refer to: https://libxc.gitlab.io

 This ORCA versions uses:
   CBLAS   interface :  Fast vector & matrix operations
   LAPACKE interface :  Fast linear algebra routines
   SCALAPACK package :  Parallel linear algebra routines
   Shared memory     :  Shared parallel matrices
   BLAS/LAPACK       :  OpenBLAS 0.3.27  USE64BITINT DYNAMIC_ARCH NO_AFFINITY SkylakeX SINGLE_THREADED
        Core in use  :  SkylakeX
   Copyright (c) 2011-2014, The OpenBLAS Project


NOTE: MaxCore=3000 MB was set to SCF,MP2,MDCI,CIPSI,MRCI and CIS
      => If you want to overwrite this, your respective input block should be placed after the MaxCore statement


***************************************
The coordinates will be read from file: start.xyz
***************************************


Your calculation utilizes the atom-pairwise dispersion correction
with the Becke-Johnson damping scheme (D3BJ)


================================================================================

----- Orbital basis set information -----
Your calculation utilizes the basis: def2-SVP
   F. Weigend and R. Ahlrichs, Phys. Chem. Chem. Phys. 7, 3297 (2005).

----- AuxJ basis set information -----
Your calculation utilizes the auxiliary basis: def2/J
   F. Weigend, Phys. Chem. Chem. Phys. 8, 1057 (2006).

================================================================================
                                        WARNINGS
                       Please study these warnings very carefully!
================================================================================


WARNING: Geometry Optimization
  ===> : Switching off AutoStart
         For restart on a previous wavefunction, please use MOREAD

WARNING: The chosen methods will break translational/rotational symmetry
  ===> : Will NOT project out the translational and rotational degrees of freedom
         of the Hessians, in case Hessians are calculated!

WARNING: The chosen methods will break translational symmetry
  ===> : Will NOT exploit translational invariance of the Hessians,
         in case Hessians are calculated!

WARNING: The chosen methods will break translational symmetry
  ===> : Will NOT make the numerical gradients translationally invariant,
         in case numerical gradients are calculated!

================================================================================
                                       INPUT FILE
================================================================================
NAME = job.inp
|  1> ! B3LYP D3BJ def2-SVP def2/J RIJCOSX CPCM TightSCF Opt
|  2> %maxcore 3000
|  3> %pal nprocs 8 end
|  4> %cpcm epsilon 4.0 end
|  5> %scf MaxIter 300 end
|  6> %geom coordsys cartesian end
|  7> %pointcharges "design.pc"
|  8> * xyzfile -2 1 start.xyz
|  9> 
| 10>                          ****END OF INPUT****
================================================================================

                       *****************************
                       * Geometry Optimization Run *
                       *****************************

Geometry optimization settings:
Update method            Update   .... BFGS
Choice of coordinates    CoordSys .... Cartesian
Initial Hessian          InHess   .... Almloef's Model
Max. no of cycles        MaxIter  .... 72

Convergence Tolerances:
Energy Change            TolE     ....  5.0000e-06 Eh
Max. Gradient            TolMAXG  ....  3.0000e-04 Eh/bohr
RMS Gradient             TolRMSG  ....  1.0000e-04 Eh/bohr
Max. Displacement        TolMAXD  ....  4.0000e-03 bohr
RMS Displacement         TolRMSD  ....  2.0000e-03 bohr
Strict Convergence                .... False

------------------------------------------------------------------------------
                        ORCA OPTIMIZATION COORDINATE SETUP
------------------------------------------------------------------------------

The optimization will be done in Cartesian displacement coordinates
Initial hessian                         .... (Almloef)  done
Number of atoms                         .... 24
Number of degrees of freedom            .... 72
Constrained atoms:                      

         *************************************************************
         *                GEOMETRY OPTIMIZATION CYCLE   1            *
         *************************************************************
---------------------------------
CARTESIAN COORDINATES (ANGSTROEM)
---------------------------------
  C     60.111938   34.383969   57.210132
  H     60.607199   33.429939   57.384609
  H     60.724693   35.271818   57.059193
  C     58.780577   34.503532   57.151958
  C     58.092182   35.834261   56.893354
  O     58.812467   36.818218   56.578789
  O     56.839549   35.848917   57.009617
  O     57.934615   33.426403   57.345998
  C     57.676936   32.537732   56.200806
  H     57.019017   31.763769   56.624072
  C     58.986487   31.961840   55.793172
  H     59.463930   31.242983   56.460496
  C     59.683105   32.482671   54.768151
  C     59.064321   33.483709   53.893179
  H     59.702361   33.904544   53.110969
  C     57.781253   33.865659   54.031533
  H     57.332181   34.602354   53.356629
  C     56.889799   33.271093   55.086182
  H     56.347190   34.090648   55.585880
  O     55.962863   32.397707   54.434668
  H     55.310845   32.109527   55.092770
  C     61.123200   32.062126   54.534208
  O     61.784962   31.702328   55.543381
  O     61.541071   32.106513   53.352738

----------------------------
CARTESIAN COORDINATES (A.U.)
----------------------------
  NO LB      ZA    FRAG     MASS         X           Y           Z
   0 C     6.0000    0    12.011  113.595100   64.976285  108.111482
   1 H     1.0000    0     1.008  114.531008   63.173429  108.441195
   2 H     1.0000    0     1.008  114.753039   66.654076  107.826248
   3 C     6.0000    0    12.011  111.079193   65.202226  108.001549
   4 C     6.0000    0    12.011  109.778315   67.716940  107.512858
   5 O     8.0000    0    15.999  111.139456   69.576349  106.918416
   6 O     8.0000    0    15.999  107.411181   67.744635  107.732563
   7 O     8.0000    0    15.999  109.480556   63.166747  108.368231
   8 C     6.0000    0    12.011  108.993613   61.487402  106.204132
   9 H     1.0000    0     1.008  107.750327   60.024824  107.003989
  10 C     6.0000    0    12.011  111.468306   60.399124  105.433815
  11 H     1.0000    0     1.008  112.370543   59.040681  106.694875
  12 C     6.0000    0    12.011  112.784723   61.383352  103.496806
  13 C     6.0000    0    12.011  111.615391   63.275040  101.843349
  14 H     1.0000    0     1.008  112.821112   64.070303  100.365186
  15 C     6.0000    0    12.011  109.190744   63.996821  102.104800
  16 H     1.0000    0     1.008  108.342121   65.388973  100.829416
  17 C     6.0000    0    12.011  107.506140   62.873254  104.097798
  18 H     1.0000    0     1.008  106.480758   64.421988  105.042090
  19 O     8.0000    0    15.999  105.754485   61.222794  102.866615
  20 H     1.0000    0     1.008  104.522349   60.678212  104.110247
  21 C     6.0000    0    12.011  115.506108   60.588637  103.054718
  22 O     8.0000    0    15.999  116.756657   59.908718  104.961779
  23 O     8.0000    0    15.999  116.295770   60.672517  100.822063

--------------------------------
INTERNAL COORDINATES (ANGSTROEM)
--------------------------------
 C      0   0   0     0.000000000000     0.00000000     0.00000000
 H      1   0   0     1.088989863383     0.00000000     0.00000000
 H      1   2   0     1.089278255795   118.71371059     0.00000000
 C      1   2   3     1.337984169400   122.53333633   178.86021439
 C      4   1   2     1.520395795930   122.42129410   180.67352117
 O      5   4   1     1.259338317649   117.86430047     7.98397869
 O      5   4   1     1.258102267780   116.44144955   187.69788882
 O      4   1   2     1.383296826312   122.19798630     1.79734009
 C      8   4   1     1.472276920333   117.90009257   277.32119882
 H      9   8   4     1.100468192492   103.29579790   178.09067811
 C      9   8   4     1.487528451903   107.02309521    60.79280321
 H     11   9   8     1.090884286106   118.21513549    69.64465314
 C     11   9   8     1.344324967754   121.00718757   261.74112609
 C     13  11   9     1.466474246922   120.04938653   349.80769557
 H     14  13  11     1.093640536431   116.31112146   176.92324750
 C     14  13  11     1.345842161786   122.32101579   356.58249340
 H     16  14  13     1.095390612259   121.22306820   181.08159495
 C     16  14  13     1.503490430855   121.67821129   359.07517439
 H     18  16  14     1.102630044988   108.40569783   133.99480188
 O     18  16  14     1.430553719819   107.82773122   252.99945495
 H     20  18  16     0.970192469115   107.93143701   187.73461727
 C     13  11   9     1.518374470708   120.10913882   168.27919774
 O     22  13  11     1.259290947072   117.00532896   331.47810903
 O     22  13  11     1.253976769845   116.83473561   151.49408336

---------------------------
INTERNAL COORDINATES (A.U.)
---------------------------
 C      0   0   0     0.000000000000     0.00000000     0.00000000
 H      1   0   0     2.057892604409     0.00000000     0.00000000
 H      1   2   0     2.058437587087   118.71371059     0.00000000
 C      1   2   3     2.528423651689   122.53333633   178.86021439
 C      4   1   2     2.873131669473   122.42129410   180.67352117
 O      5   4   1     2.379804530310   117.86430047     7.98397869
 O      5   4   1     2.377468734570   116.44144955   187.69788882
 O      4   1   2     2.614052163652   122.19798630     1.79734009
 C      8   4   1     2.782200172723   117.90009257   277.32119882
 H      9   8   4     2.079583502901   103.29579790   178.09067811
 C      9   8   4     2.811021390513   107.02309521    60.79280321
 H     11   9   8     2.061472544539   118.21513549    69.64465314
 C     11   9   8     2.540406024047   121.00718757   261.74112609
 C     13  11   9     2.771234709130   120.04938653   349.80769557
 H     14  13  11     2.066681102809   116.31112146   176.92324750
 C     14  13  11     2.543273105260   122.32101579   356.58249340
 H     16  14  13     2.069988266838   121.22306820   181.08159495
 C     16  14  13     2.841185159288   121.67821129   359.07517439
 H     18  16  14     2.083668812060   108.40569783   133.99480188
 O     18  16  14     2.703354750320   107.82773122   252.99945495
 H     20  18  16     1.833398063821   107.93143701   187.73461727
 C     13  11   9     2.869311918377   120.10913882   168.27919774
 O     22  13  11     2.379715012892   117.00532896   331.47810903
 O     22  13  11     2.369672673306   116.83473561   151.49408336

---------------------
BASIS SET INFORMATION
---------------------
There are 3 groups of distinct atoms

 Group   1 Type C   : 7s4p1d contracted to 3s2p1d pattern {511/31/1}
 Group   2 Type H   : 4s1p contracted to 2s1p pattern {31/1}
 Group   3 Type O   : 7s4p1d contracted to 3s2p1d pattern {511/31/1}

Atom   0C    basis set group =>   1
Atom   1H    basis set group =>   2
Atom   2H    basis set group =>   2
Atom   3C    basis set group =>   1
Atom   4C    basis set group =>   1
Atom   5O    basis set group =>   3
Atom   6O    basis set group =>   3
Atom   7O    basis set group =>   3
Atom   8C    basis set group =>   1
Atom   9H    basis set group =>   2
Atom  10C    basis set group =>   1
Atom  11H    basis set group =>   2
Atom  12C    basis set group =>   1
Atom  13C    basis set group =>   1
Atom  14H    basis set group =>   2
Atom  15C    basis set group =>   1
Atom  16H    basis set group =>   2
Atom  17C    basis set group =>   1
Atom  18H    basis set group =>   2
Atom  19O    basis set group =>   3
Atom  20H    basis set group =>   2
Atom  21C    basis set group =>   1
Atom  22O    basis set group =>   3
Atom  23O    basis set group =>   3
---------------------------------
AUXILIARY/J BASIS SET INFORMATION
---------------------------------
There are 3 groups of distinct atoms

 Group   1 Type C   : 12s5p4d2f1g contracted to 6s4p3d1f1g pattern {711111/2111/211/2/1}
 Group   2 Type H   : 5s2p1d contracted to 3s1p1d pattern {311/2/1}
 Group   3 Type O   : 12s5p4d2f1g contracted to 6s4p3d1f1g pattern {711111/2111/211/2/1}

Atom   0C    basis set group =>   1
Atom   1H    basis set group =>   2
Atom   2H    basis set group =>   2
Atom   3C    basis set group =>   1
Atom   4C    basis set group =>   1
Atom   5O    basis set group =>   3
Atom   6O    basis set group =>   3
Atom   7O    basis set group =>   3
Atom   8C    basis set group =>   1
Atom   9H    basis set group =>   2
Atom  10C    basis set group =>   1
Atom  11H    basis set group =>   2
Atom  12C    basis set group =>   1
Atom  13C    basis set group =>   1
Atom  14H    basis set group =>   2
Atom  15C    basis set group =>   1
Atom  16H    basis set group =>   2
Atom  17C    basis set group =>   1
Atom  18H    basis set group =>   2
Atom  19O    basis set group =>   3
Atom  20H    basis set group =>   2
Atom  21C    basis set group =>   1
Atom  22O    basis set group =>   3
Atom  23O    basis set group =>   3


           ************************************************************
           *        Program running with 8 parallel MPI-processes     *
           *              working on a common directory               *
           ************************************************************
------------------------------------------------------------------------------
                             ORCA STARTUP CALCULATIONS
                           -- RI-GTO INTEGRALS CHOSEN --
------------------------------------------------------------------------------
------------------------------------------------------------------------------
                   ___                                                        
                  /   \      - P O W E R E D   B Y -                         
                 /     \                                                     
                 |  |  |   _    _      __       _____    __    __             
                 |  |  |  | |  | |    /  \     |  _  \  |  |  /  |          
                  \  \/   | |  | |   /    \    | | | |  |  | /  /          
                 / \  \   | |__| |  /  /\  \   | |_| |  |  |/  /          
                |  |  |   |  __  | /  /__\  \  |    /   |      \           
                |  |  |   | |  | | |   __   |  |    \   |  |\   \          
                \     /   | |  | | |  |  |  |  | |\  \  |  | \   \       
                 \___/    |_|  |_| |__|  |__|  |_| \__\ |__|  \__/        
                                                                              
                      - O R C A' S   B I G   F R I E N D -                    
                                      &                                       
                       - I N T E G R A L  F E E D E R -                       
                                                                              
 v1 FN, 2020, v2 2021, v3 2022-2024                                           
------------------------------------------------------------------------------


----------------------
SHARK INTEGRAL PACKAGE
----------------------

Number of atoms                             ...     24
Number of basis functions                   ...    264
Number of shells                            ...    120
Maximum angular momentum                    ...      2
Integral batch strategy                     ... SHARK/LIBINT Hybrid
RI-J (if used) integral strategy            ... SPLIT-RIJ (Revised 2003 algorithm where possible)
Printlevel                                  ...      1
Contraction scheme used                     ... SEGMENTED contraction
Prescreening option                         ... SCHWARTZ
   Thresh                                   ... 2.500e-11
   Tcut                                     ... 2.500e-12
   Tpresel                                  ... 2.500e-12 
Coulomb Range Separation                    ... NOT USED
Exchange Range Separation                   ... NOT USED
Multipole approximations                    ... NOT USED
Finite Nucleus Model                        ... NOT USED
CABS basis                                  ... NOT available
Auxiliary Coulomb fitting basis             ... AVAILABLE
   # of basis functions in Aux-J            ...    872
   # of shells in Aux-J                     ...    280
   Maximum angular momentum in Aux-J        ...      4
Auxiliary J/K fitting basis                 ... NOT available
Auxiliary Correlation fitting basis         ... NOT available
Auxiliary 'external' fitting basis          ... NOT available

Checking pre-screening integrals            ... done (  0.0 sec) Dimension = 120
Check shell pair data                       ... done (  0.0 sec)
Shell pair information
Shell pair cut-off parameter TPreSel        ...   2.5e-12
Total number of shell pairs                 ...      7260
Shell pairs after pre-screening             ...      6312
Total number of primitive shell pairs       ...     27260
Primitive shell pairs kept                  ...     15769
          la=0 lb=0:   1793 shell pairs
          la=1 lb=0:   2271 shell pairs
          la=1 lb=1:    756 shell pairs
          la=2 lb=0:    837 shell pairs
          la=2 lb=1:    551 shell pairs
          la=2 lb=2:    104 shell pairs

Reading point charge file                   ... ok (3 point charges)
Calculating one electron integrals          ... done (  0.0 sec)
Calculating RI/J V-Matrix + Cholesky decomp.... done (  0.7 sec)
Calculating Nuclear repulsion               ... (+Point charges) done (  0.0 sec) ENN=   1104.427354085133 Eh

Diagonalization of the overlap matrix:
Smallest eigenvalue                        ... 4.683e-04
Time for diagonalization                   ...    0.015 sec
Threshold for overlap eigenvalues          ... 1.000e-07
Number of eigenvalues below threshold      ... 0
Time for construction of square roots      ...    0.018 sec
Total time needed                          ...    0.067 sec

-------------------
DFT GRID GENERATION
-------------------

General Integration Accuracy     IntAcc      ... 4.388
Radial Grid Type                 RadialGrid  ... OptM3 with GC (2021)
Angular Grid (max. ang.)         AngularGrid ... 4 (Lebedev-302)
Angular grid pruning method      GridPruning ... 4 (adaptive)
Weight generation scheme         WeightScheme... mBecke (2022)
Basis function cutoff            BFCut       ... 1.0000e-11
Integration weight cutoff        WCut        ... 1.0000e-14
Partially contracted basis set               ... off
Rotationally invariant grid construction     ... off
Angular grids for H and He will be reduced by one unit

Total number of grid points                  ...   121630
Total number of batches                      ...     1912
Average number of points per batch           ...       63
Average number of grid points per atom       ...     5068

--------------------
COSX GRID GENERATION
--------------------

GRIDX 1
-------
General Integration Accuracy     IntAcc      ... 3.816
Radial Grid Type                 RadialGrid  ... OptM3 with GC (2021)
Angular Grid (max. ang.)         AngularGrid ... 1 (Lebedev-50)
Angular grid pruning method      GridPruning ... 4 (adaptive)
Weight generation scheme         WeightScheme... mBecke (2022)
Basis function cutoff            BFCut       ... 1.0000e-11
Integration weight cutoff        WCut        ... 1.0000e-14
Partially contracted basis set               ... on
Rotationally invariant grid construction     ... off
Angular grids for H and He will be reduced by one unit

Total number of grid points                  ...    15403
Total number of batches                      ...      134
Average number of points per batch           ...      114
Average number of grid points per atom       ...      642
UseSFitting                                  ... on

GRIDX 2
-------
General Integration Accuracy     IntAcc      ... 4.020
Radial Grid Type                 RadialGrid  ... OptM3 with GC (2021)
Angular Grid (max. ang.)         AngularGrid ... 2 (Lebedev-110)
Angular grid pruning method      GridPruning ... 4 (adaptive)
Weight generation scheme         WeightScheme... mBecke (2022)
Basis function cutoff            BFCut       ... 1.0000e-11
Integration weight cutoff        WCut        ... 1.0000e-14
Partially contracted basis set               ... on
Rotationally invariant grid construction     ... off
Angular grids for H and He will be reduced by one unit

Total number of grid points                  ...    34411
Total number of batches                      ...      281
Average number of points per batch           ...      122
Average number of grid points per atom       ...     1434
UseSFitting                                  ... on

GRIDX 3
-------
General Integration Accuracy     IntAcc      ... 4.338
Radial Grid Type                 RadialGrid  ... OptM3 with GC (2021)
Angular Grid (max. ang.)         AngularGrid ... 3 (Lebedev-194)
Angular grid pruning method      GridPruning ... 4 (adaptive)
Weight generation scheme         WeightScheme... mBecke (2022)
Basis function cutoff            BFCut       ... 1.0000e-11
Integration weight cutoff        WCut        ... 1.0000e-14
Partially contracted basis set               ... on
Rotationally invariant grid construction     ... off
Angular grids for H and He will be reduced by one unit

Total number of grid points                  ...    75571
Total number of batches                      ...      603
Average number of points per batch           ...      125
Average number of grid points per atom       ...     3149
UseSFitting                                  ... on
Initializing property integral containers    ... done (  0.1 sec)

SHARK setup successfully completed in   6.8 seconds

Maximum memory used throughout the entire STARTUP-calculation: 33.9 MB


           ************************************************************
           *        Program running with 8 parallel MPI-processes     *
           *              working on a common directory               *
           ************************************************************
-------------------------------------------------------------------------------
                                 ORCA GUESS
                   Start orbitals & Density for SCF / CASSCF
-------------------------------------------------------------------------------

------------
SCF SETTINGS
------------
Hamiltonian:
 Density Functional     Method          .... DFT(GTOs)
 Exchange Functional    Exchange        .... B88
   X-Alpha parameter    XAlpha          ....  0.666667
   Becke's b parameter  XBeta           ....  0.004200
 Correlation Functional Correlation     .... LYP
 LDA part of GGA corr.  LDAOpt          .... VWN-5
 Gradients option       PostSCFGGA      .... off
 Hybrid DFT is turned on
   Fraction HF Exchange ScalHFX         ....  0.200000
   Scaling of DF-GGA-X  ScalDFX         ....  0.720000
   Scaling of DF-GGA-C  ScalDFC         ....  0.810000
   Scaling of DF-LDA-C  ScalLDAC        ....  1.000000
   Perturbative correction              ....  0.000000
   NL short-range parameter             ....  4.800000
 RI-approximation to the Coulomb term is turned on
   Number of AuxJ basis functions       .... 872
   RIJ-COSX (HFX calculated with COS-X)).... on


General Settings:
 Integral files         IntName         .... job
 Hartree-Fock type      HFTyp           .... RHF
 Total Charge           Charge          ....   -2
 Multiplicity           Mult            ....    1
 Number of Electrons    NEL             ....  118
 Basis Dimension        Dim             ....  264
 Nuclear Repulsion      ENuc            ....   1104.4273540851 Eh

Convergence Acceleration:
 AO-DIIS                CNVDIIS         .... on
   Start iteration      DIISMaxIt       ....    12
   Startup error        DIISStart       ....  0.200000
   # of expansion vecs  DIISMaxEq       ....     5
   Bias factor          DIISBfac        ....   1.050
   Max. coefficient     DIISMaxC        ....  10.000
 MO-DIIS                CNVKDIIS        .... off
 Trust-Rad. Augm. Hess. CNVTRAH         .... auto
   Auto Start mean grad. ratio tolernc. ....  1.125000
   Auto Start start iteration           ....    50
   Auto Start num. interpolation iter.  ....    10
   Max. Number of Micro iterations      ....    24
   Max. Number of Macro iterations      .... Maxiter - #DIIS iter
   Number of Davidson start vectors     ....     2
   Converg. threshold    (grad. norm)   ....   1.000e-05
   Grad. Scal. Fac. for Micro threshold ....   0.100
   Minimum threshold for Micro iter.    ....   1.000e-02
   NR start threshold (gradient norm)   ....   1.000e-04
   Initial trust radius                 ....   0.400
   Minimum AH scaling param. (alpha)    ....   1.000
   Maximum AH scaling param. (alpha)    .... 1000.000
   Quad. conv. algorithm                .... NR
   White noise on init. David. guess    .... on
   Maximum white noise                  ....   0.010
   Pseudo random numbers                .... off
   Inactive MOs                         .... canonical
   Orbital update algorithm             .... Taylor
   Preconditioner                       .... Diag
   Full preconditioner red. dimension   ....   250
 SOSCF                  CNVSOSCF        .... on
   Start iteration      SOSCFMaxIt      ....   150
   Startup grad/error   SOSCFStart      ....  0.003300
   Hessian update       SOSCFHessUp     .... L-BFGS
 Level Shifting         CNVShift        .... on
   Level shift para.    LevelShift      ....    0.2500
   Turn off err/grad.   ShiftErr        ....    0.0010
 Zerner damping         CNVZerner       .... off
 Static damping         CNVDamp         .... on
   Fraction old density DampFac         ....    0.7000
   Max. Damping (<1)    DampMax         ....    0.9800
   Min. Damping (>=0)   DampMin         ....    0.0000
   Turn off err/grad.   DampErr         ....    0.1000

SCF Procedure:
 Maximum # iterations   MaxIter         ....   300
 SCF integral mode      SCFMode         .... Direct
   Integral package                     .... SHARK and LIBINT hybrid scheme
 Reset frequency        DirectResetFreq ....    20
 Integral Threshold     Thresh          ....  2.500e-11 Eh
 Primitive CutOff       TCut            ....  2.500e-12 Eh

Convergence Tolerance:
 Convergence Check Mode ConvCheckMode   .... Total+1el-Energy
 Convergence forced     ConvForced      .... 0
 Energy Change          TolE            ....  1.000e-08 Eh
 1-El. energy change                    ....  1.000e-05 Eh
 Orbital Gradient       TolG            ....  1.000e-05
 Orbital Rotation angle TolX            ....  1.000e-05
 DIIS Error             TolErr          ....  5.000e-07

------------------------------
INITIAL GUESS: MODEL POTENTIAL
------------------------------
Loading Hartree-Fock densities                     ... done
Calculating cut-offs                               ... done
Initializing the effective Hamiltonian             ... done
Setting up the integral package (SHARK)            ... done
Starting the Coulomb interaction                   ... done (   0.2 sec)
Making the grid                                    ... done (   0.6 sec)
Mapping shells                                     ... done
Starting the XC term evaluation                    ... done (   0.1 sec)
  promolecular density results
     # of electrons  =    115.995184324
     EX              =   -102.842458325
     EC              =     -4.058902881
     EX+EC           =   -106.901361206
Transforming the Hamiltonian                       ... done (   0.0 sec)
Diagonalizing the Hamiltonian                      ... done (   0.0 sec)
Back transforming the eigenvectors                 ... done (   0.0 sec)
Now organizing SCF variables                       ... done
                      ------------------
                      INITIAL GUESS DONE (   1.2 sec)
                      ------------------
             **** ENERGY FILE WAS UPDATED (job.en.tmp) ****
Finished Guess after   2.4 sec
Maximum memory used throughout the entire GUESS-calculation: 20.0 MB


           ************************************************************
           *        Program running with 8 parallel MPI-processes     *
           *              working on a common directory               *
           ************************************************************

-------------------------------------------------------------------------------------------
                                      ORCA LEAN-SCF
                              memory conserving SCF solver
-------------------------------------------------------------------------------------------

--------------------
CPCM SOLVATION MODEL
--------------------
CPCM parameters:
  Epsilon                                         ...       4.0000
  Refrac                                          ...       1.3300
  Rsolv                                           ...       1.3000
  Surface type                                    ... GAUSSIAN VDW
  Discretization scheme                           ... Constant charge density
    Threshold for H atoms                         ...       5.0000 (charges/Ang^2)
    Threshold for non-H atoms                     ...       5.0000 (charges/Ang^2)
  Epsilon function type                           ...         CPCM
Solvent:                                          ... CUSTOM
Radii:
  Scheme                                          ... Element-dependent radii
  Radius for C  used is    3.8550 Bohr (=   2.0400 Ang.)
  Radius for H  used is    2.4944 Bohr (=   1.3200 Ang.)
  Radius for O  used is    3.4469 Bohr (=   1.8240 Ang.)
Calculating surface                               ...        done! (  0.0s)
Cavity surface points                             ...         2123
Cavity Volume                                     ...    1726.4932
Cavity Surface-area                               ...     858.3516
Calculating surface distance matrix               ...        done! (  0.1s)
Performing Cholesky decomposition & store         ...        done! (  0.8s)
Overall time for CPCM initialization              ...                 0.9s

----------------------------------------D-I-I-S--------------------------------------------
Iteration    Energy (Eh)           Delta-E    RMSDP     MaxDP     DIISErr   Damp  Time(sec)
-------------------------------------------------------------------------------------------
               ***  Starting incremental Fock matrix formation  ***
    1    -835.5829091139796674     0.00e+00  4.33e-03  1.69e-01  3.24e-01  0.700   4.4
Warning: op=0 Small HOMO/LUMO gap (   0.072) - skipping pre-diagonalization
         Will do a full diagonalization
    2    -835.8503211782144717    -2.67e-01  3.03e-03  1.26e-01  1.36e-01  0.700   2.7
                               ***Turning on AO-DIIS***
    3    -835.9518384334335224    -1.02e-01  1.23e-03  4.04e-02  4.26e-02  0.700   2.6
    4    -836.0134620814753816    -6.16e-02  1.96e-03  5.29e-02  2.21e-02  0.000   2.4
    5    -836.1499774549085942    -1.37e-01  4.39e-04  1.74e-02  6.65e-03  0.000   2.5
                              *** Initializing SOSCF ***
---------------------------------------S-O-S-C-F--------------------------------------
Iteration    Energy (Eh)           Delta-E    RMSDP     MaxDP     MaxGrad    Time(sec)
--------------------------------------------------------------------------------------
    6    -836.1506394793930212    -6.62e-04  1.47e-04  5.39e-03  1.20e-03     2.4
               *** Restarting incremental Fock matrix formation ***
    7    -836.1507304861581815    -9.10e-05  1.94e-04  6.02e-03  1.21e-03     4.0
    8    -836.1507739866140128    -4.35e-05  1.63e-04  5.64e-03  4.71e-04     3.1
    9    -836.1507858721879529    -1.19e-05  7.03e-05  1.65e-03  4.67e-04     3.2
   10    -836.1507926977985790    -6.83e-06  4.49e-05  2.36e-03  2.95e-04     2.9
   11    -836.1507919642410798     7.34e-07  3.06e-05  1.16e-03  2.10e-04     3.1
   12    -836.1507947177376536    -2.75e-06  8.42e-06  2.51e-04  2.68e-05     3.1
   13    -836.1507947231998514    -5.46e-09  4.62e-06  1.39e-04  2.67e-05     2.6
                 **** Energy Check signals convergence ****

               *****************************************************
               *                     SUCCESS                       *
               *           SCF CONVERGED AFTER  13 CYCLES          *
               *****************************************************

Recomputing exchange energy using gridx3       ... done (    5.151 sec)
Old exchange energy                            :    -20.885069485 Eh
New exchange energy                            :    -20.885121390 Eh
Exchange energy change after final integration :     -0.000051905 Eh
Total energy after final integration           :   -836.150846628 Eh
             **** ENERGY FILE WAS UPDATED (job.en.tmp) ****

----------------
TOTAL SCF ENERGY
----------------

Total Energy       :       -836.15084662813706 Eh          -22752.82127 eV

Components:
Nuclear Repulsion  :       1104.42735408513295 Eh           30052.99617 eV
Electronic Energy  :      -1940.35651937070224 Eh          -52799.78518 eV
One Electron Energy:      -3382.18020403893343 Eh          -92033.80226 eV
Two Electron Energy:       1441.82368466823118 Eh           39234.01708 eV
CPCM Dielectric    :         -0.22162943763057 Eh              -6.03084 eV

Virial components:
Potential Energy   :      -1665.68382682931133 Eh          -45325.56124 eV
Kinetic Energy     :        829.53298020117415 Eh           22572.73997 eV
Virial Ratio       :          2.00797782196117

DFT components:
N(Alpha)           :       59.000031488143 electrons
N(Beta)            :       59.000031488143 electrons
N(Total)           :      118.000062976287 electrons
E(X)               :      -83.132472861362 Eh       
E(C)               :       -4.847670482914 Eh       
E(XC)              :      -87.980143344276 Eh       

CPCM Solvation Model Properties:
Surface-charge          :          1.98158348076628
Corrected charge        :          2.00000000000000
Outlying charge corr.   :          0.00001622081399 Eh               0.00044 eV
Free-energy (cav+disp)  :  This term is not implemented in the current solvation scheme

---------------
SCF CONVERGENCE
---------------

  Last Energy change         ...    5.4622e-09  Tolerance :   1.0000e-08
  Last MAX-Density change    ...    1.3858e-04  Tolerance :   1.0000e-07
  Last RMS-Density change    ...    4.6213e-06  Tolerance :   5.0000e-09
  Last DIIS Error            ...    1.2041e-03  Tolerance :   5.0000e-07
  Last Orbital Gradient      ...    2.6675e-05  Tolerance :   1.0000e-05
  Last Orbital Rotation      ...    2.0090e-04  Tolerance :   1.0000e-05


----------------
ORBITAL ENERGIES
----------------

  NO   OCC          E(Eh)            E(eV) 
   0   2.0000     -19.036337      -518.0051 
   1   2.0000     -19.013831      -517.3927 
   2   2.0000     -18.945087      -515.5220 
   3   2.0000     -18.938302      -515.3374 
   4   2.0000     -18.838876      -512.6319 
   5   2.0000     -18.826549      -512.2964 
   6   2.0000     -10.140194      -275.9287 
   7   2.0000     -10.122815      -275.4558 
   8   2.0000     -10.111872      -275.1580 
   9   2.0000     -10.106964      -275.0245 
  10   2.0000     -10.060213      -273.7523 
  11   2.0000     -10.035286      -273.0740 
  12   2.0000     -10.030302      -272.9384 
  13   2.0000     -10.030191      -272.9354 
  14   2.0000     -10.019069      -272.6327 
  15   2.0000     -10.016775      -272.5703 
  16   2.0000      -0.922665       -25.1070 
  17   2.0000      -0.887544       -24.1513 
  18   2.0000      -0.876611       -23.8538 
  19   2.0000      -0.788577       -21.4583 
  20   2.0000      -0.770377       -20.9630 
  21   2.0000      -0.679627       -18.4936 
  22   2.0000      -0.677444       -18.4342 
  23   2.0000      -0.636631       -17.3236 
  24   2.0000      -0.591245       -16.0886 
  25   2.0000      -0.577701       -15.7200 
  26   2.0000      -0.499277       -13.5860 
  27   2.0000      -0.465702       -12.6724 
  28   2.0000      -0.449822       -12.2403 
  29   2.0000      -0.404266       -11.0006 
  30   2.0000      -0.395435       -10.7603 
  31   2.0000      -0.368180       -10.0187 
  32   2.0000      -0.352652        -9.5961 
  33   2.0000      -0.336354        -9.1527 
  34   2.0000      -0.326375        -8.8811 
  35   2.0000      -0.315949        -8.5974 
  36   2.0000      -0.302347        -8.2273 
  37   2.0000      -0.280336        -7.6283 
  38   2.0000      -0.277784        -7.5589 
  39   2.0000      -0.272184        -7.4065 
  40   2.0000      -0.268377        -7.3029 
  41   2.0000      -0.251041        -6.8312 
  42   2.0000      -0.241638        -6.5753 
  43   2.0000      -0.227316        -6.1856 
  44   2.0000      -0.193501        -5.2654 
  45   2.0000      -0.188657        -5.1336 
  46   2.0000      -0.184752        -5.0273 
  47   2.0000      -0.178829        -4.8662 
  48   2.0000      -0.149072        -4.0565 
  49   2.0000      -0.142341        -3.8733 
  50   2.0000      -0.136182        -3.7057 
  51   2.0000      -0.130808        -3.5595 
  52   2.0000      -0.120281        -3.2730 
  53   2.0000      -0.115442        -3.1413 
  54   2.0000      -0.099049        -2.6953 
  55   2.0000      -0.073424        -1.9980 
  56   2.0000      -0.009882        -0.2689 
  57   2.0000      -0.001872        -0.0509 
  58   2.0000       0.018936         0.5153 
  59   0.0000       0.101021         2.7489 
  60   0.0000       0.106183         2.8894 
  61   0.0000       0.151765         4.1297 
  62   0.0000       0.194211         5.2847 
  63   0.0000       0.214063         5.8250 
  64   0.0000       0.221185         6.0188 
  65   0.0000       0.232227         6.3192 
  66   0.0000       0.237489         6.4624 
  67   0.0000       0.246149         6.6981 
  68   0.0000       0.277833         7.5602 
  69   0.0000       0.285366         7.7652 
*Only the first 10 virtual orbitals were printed.

                    ********************************
                    * MULLIKEN POPULATION ANALYSIS *
                    ********************************

-----------------------
MULLIKEN ATOMIC CHARGES
-----------------------
   0 C :    0.010621
   1 H :   -0.027815
   2 H :    0.005697
   3 C :   -0.045130
   4 C :    0.065298
   5 O :   -0.415978
   6 O :   -0.458058
   7 O :   -0.446277
   8 C :    0.196524
   9 H :   -0.113386
  10 C :   -0.084599
  11 H :   -0.101163
  12 C :   -0.002158
  13 C :    0.064244
  14 H :    0.025256
  15 C :   -0.093198
  16 H :   -0.028261
  17 C :    0.252696
  18 H :   -0.059072
  19 O :   -0.326259
  20 H :    0.147221
  21 C :    0.116096
  22 O :   -0.468244
  23 O :   -0.214054
Sum of atomic charges:   -2.0000000

--------------------------------
MULLIKEN REDUCED ORBITAL CHARGES
--------------------------------
  0 C s       :     3.118951  s :     3.118951
      pz      :     0.995710  p :     2.845539
      px      :     0.987684
      py      :     0.862145
      dz2     :     0.001531  d :     0.024890
      dxz     :     0.005629
      dyz     :     0.000637
      dx2y2   :     0.008195
      dxy     :     0.008898

  1 H s       :     1.003383  s :     1.003383
      pz      :     0.004562  p :     0.024432
      px      :     0.006499
      py      :     0.013371

  2 H s       :     0.969943  s :     0.969943
      pz      :     0.004958  p :     0.024359
      px      :     0.007286
      py      :     0.012115

  3 C s       :     3.175294  s :     3.175294
      pz      :     1.033188  p :     2.802852
      px      :     0.877789
      py      :     0.891876
      dz2     :     0.004914  d :     0.066985
      dxz     :     0.010159
      dyz     :     0.006652
      dx2y2   :     0.021048
      dxy     :     0.024213

  4 C s       :     3.039322  s :     3.039322
      pz      :     0.868713  p :     2.756915
      px      :     0.934124
      py      :     0.954078
      dz2     :     0.009414  d :     0.138465
      dxz     :     0.027461
      dyz     :     0.012619
      dx2y2   :     0.043406
      dxy     :     0.045565

  5 O s       :     3.714932  s :     3.714932
      pz      :     1.524528  p :     4.687122
      px      :     1.640561
      py      :     1.522032
      dz2     :     0.001859  d :     0.013925
      dxz     :     0.001659
      dyz     :     0.002885
      dx2y2   :     0.002864
      dxy     :     0.004657

  6 O s       :     3.725988  s :     3.725988
      pz      :     1.574815  p :     4.718627
      px      :     1.349832
      py      :     1.793980
      dz2     :     0.001620  d :     0.013442
      dxz     :     0.003832
      dyz     :     0.000082
      dx2y2   :     0.005130
      dxy     :     0.002778

  7 O s       :     3.722912  s :     3.722912
      pz      :     1.584376  p :     4.709741
      px      :     1.686736
      py      :     1.438630
      dz2     :     0.002837  d :     0.013624
      dxz     :     0.001994
      dyz     :     0.003417
      dx2y2   :     0.001986
      dxy     :     0.003391

  8 C s       :     2.982320  s :     2.982320
      pz      :     0.868511  p :     2.757081
      px      :     1.008251
      py      :     0.880319
      dz2     :     0.011787  d :     0.064076
      dxz     :     0.012711
      dyz     :     0.017836
      dx2y2   :     0.008575
      dxy     :     0.013165

  9 H s       :     1.093345  s :     1.093345
      pz      :     0.003812  p :     0.020041
      px      :     0.007597
      py      :     0.008631

 10 C s       :     3.180620  s :     3.180620
      pz      :     1.023215  p :     2.871387
      px      :     0.894991
      py      :     0.953182
      dz2     :     0.005949  d :     0.032592
      dxz     :     0.008408
      dyz     :     0.006039
      dx2y2   :     0.005768
      dxy     :     0.006430

 11 H s       :     1.077878  s :     1.077878
      pz      :     0.007223  p :     0.023284
      px      :     0.006729
      py      :     0.009332

 12 C s       :     3.149683  s :     3.149683
      pz      :     0.886889  p :     2.810844
      px      :     1.021110
      py      :     0.902845
      dz2     :     0.009227  d :     0.041630
      dxz     :     0.009648
      dyz     :     0.006813
      dx2y2   :     0.007390
      dxy     :     0.008552

 13 C s       :     3.227065  s :     3.227065
      pz      :     0.877409  p :     2.673407
      px      :     0.861926
      py      :     0.934071
      dz2     :     0.004803  d :     0.035284
      dxz     :     0.009386
      dyz     :     0.004873
      dx2y2   :     0.007671
      dxy     :     0.008551

 14 H s       :     0.951229  s :     0.951229
      pz      :     0.010378  p :     0.023515
      px      :     0.008432
      py      :     0.004706

 15 C s       :     3.177710  s :     3.177710
      pz      :     0.962121  p :     2.882885
      px      :     0.961620
      py      :     0.959145
      dz2     :     0.003314  d :     0.032603
      dxz     :     0.010408
      dyz     :     0.004626
      dx2y2   :     0.006385
      dxy     :     0.007871

 16 H s       :     1.005578  s :     1.005578
      pz      :     0.008259  p :     0.022682
      px      :     0.005194
      py      :     0.009230

 17 C s       :     2.930994  s :     2.930994
      pz      :     0.954093  p :     2.748020
      px      :     0.915674
      py      :     0.878252
      dz2     :     0.009421  d :     0.068290
      dxz     :     0.016667
      dyz     :     0.015020
      dx2y2   :     0.010463
      dxy     :     0.016719

 18 H s       :     1.036795  s :     1.036795
      pz      :     0.006804  p :     0.022277
      px      :     0.004837
      py      :     0.010636

 19 O s       :     3.735380  s :     3.735380
      pz      :     1.527254  p :     4.578298
      px      :     1.406309
      py      :     1.644735
      dz2     :     0.001932  d :     0.012581
      dxz     :     0.004947
      dyz     :     0.002932
      dx2y2   :     0.001263
      dxy     :     0.001508

 20 H s       :     0.785644  s :     0.785644
      pz      :     0.022899  p :     0.067135
      px      :     0.024787
      py      :     0.019449

 21 C s       :     3.011356  s :     3.011356
      pz      :     0.921757  p :     2.729868
      px      :     0.902278
      py      :     0.905833
      dz2     :     0.045715  d :     0.142681
      dxz     :     0.043389
      dyz     :     0.033780
      dx2y2   :     0.011615
      dxy     :     0.008182

 22 O s       :     3.729403  s :     3.729403
      pz      :     1.498112  p :     4.725401
      px      :     1.655304
      py      :     1.571985
      dz2     :     0.002975  d :     0.013439
      dxz     :     0.004428
      dyz     :     0.002817
      dx2y2   :     0.001575
      dxy     :     0.001645

 23 O s       :     3.771761  s :     3.771761
      pz      :     1.334250  p :     4.425471
      px      :     1.633476
      py      :     1.457745
      dz2     :     0.006541  d :     0.016823
      dxz     :     0.004635
      dyz     :     0.004285
      dx2y2   :     0.000604
      dxy     :     0.000758



                     *******************************
                     * LOEWDIN POPULATION ANALYSIS *
                     *******************************

----------------------
LOEWDIN ATOMIC CHARGES
----------------------
   0 C :   -0.070754
   1 H :    0.003435
   2 H :    0.022977
   3 C :   -0.052793
   4 C :   -0.065658
   5 O :   -0.392373
   6 O :   -0.420109
   7 O :   -0.229103
   8 C :    0.060362
   9 H :   -0.021950
  10 C :   -0.101741
  11 H :   -0.015132
  12 C :   -0.015093
  13 C :    0.025651
  14 H :    0.048425
  15 C :   -0.076842
  16 H :    0.014367
  17 C :    0.047441
  18 H :   -0.011315
  19 O :   -0.156580
  20 H :    0.060973
  21 C :   -0.044885
  22 O :   -0.419646
  23 O :   -0.189660

-------------------------------
LOEWDIN REDUCED ORBITAL CHARGES
-------------------------------
  0 C s       :     2.895231  s :     2.895231
      pz      :     0.985930  p :     3.107749
      px      :     1.075270
      py      :     1.046549
      dz2     :     0.004937  d :     0.067773
      dxz     :     0.011683
      dyz     :     0.001305
      dx2y2   :     0.023403
      dxy     :     0.026444

  1 H s       :     0.921917  s :     0.921917
      pz      :     0.015443  p :     0.074648
      px      :     0.018772
      py      :     0.040434

  2 H s       :     0.905039  s :     0.905039
      pz      :     0.016012  p :     0.071984
      px      :     0.019897
      py      :     0.036075

  3 C s       :     2.899724  s :     2.899724
      pz      :     0.999417  p :     2.989639
      px      :     1.049055
      py      :     0.941167
      dz2     :     0.012588  d :     0.163431
      dxz     :     0.022040
      dyz     :     0.013974
      dx2y2   :     0.054416
      dxy     :     0.060412

  4 C s       :     2.864038  s :     2.864038
      pz      :     0.855408  p :     2.877428
      px      :     1.011213
      py      :     1.010806
      dz2     :     0.021521  d :     0.324192
      dxz     :     0.056968
      dyz     :     0.026614
      dx2y2   :     0.105940
      dxy     :     0.113149

  5 O s       :     3.571266  s :     3.571266
      pz      :     1.530920  p :     4.796305
      px      :     1.687839
      py      :     1.577546
      dz2     :     0.003399  d :     0.024803
      dxz     :     0.002570
      dyz     :     0.004403
      dx2y2   :     0.004978
      dxy     :     0.009452

  6 O s       :     3.567053  s :     3.567053
      pz      :     1.567242  p :     4.828702
      px      :     1.466858
      py      :     1.794601
      dz2     :     0.003587  d :     0.024354
      dxz     :     0.005177
      dyz     :     0.000118
      dx2y2   :     0.010863
      dxy     :     0.004609

  7 O s       :     3.464740  s :     3.464740
      pz      :     1.587588  p :     4.737855
      px      :     1.687443
      py      :     1.462824
      dz2     :     0.005030  d :     0.026508
      dxz     :     0.003331
      dyz     :     0.007204
      dx2y2   :     0.004238
      dxy     :     0.006704

  8 C s       :     2.867402  s :     2.867402
      pz      :     0.915023  p :     2.920481
      px      :     1.068414
      py      :     0.937044
      dz2     :     0.026936  d :     0.151754
      dxz     :     0.030719
      dyz     :     0.042876
      dx2y2   :     0.019043
      dxy     :     0.032180

  9 H s       :     0.957778  s :     0.957778
      pz      :     0.014042  p :     0.064172
      px      :     0.023592
      py      :     0.026537

 10 C s       :     2.867650  s :     2.867650
      pz      :     1.072637  p :     3.144959
      px      :     1.013613
      py      :     1.058709
      dz2     :     0.015059  d :     0.089132
      dxz     :     0.024627
      dyz     :     0.017178
      dx2y2   :     0.015634
      dxy     :     0.016634

 11 H s       :     0.941555  s :     0.941555
      pz      :     0.022143  p :     0.073576
      px      :     0.022767
      py      :     0.028666

 12 C s       :     2.896518  s :     2.896518
      pz      :     0.985910  p :     3.010703
      px      :     1.083831
      py      :     0.940961
      dz2     :     0.022500  d :     0.107873
      dxz     :     0.026327
      dyz     :     0.018389
      dx2y2   :     0.020048
      dxy     :     0.020609

 13 C s       :     2.874312  s :     2.874312
      pz      :     0.982809  p :     3.008697
      px      :     1.062221
      py      :     0.963668
      dz2     :     0.011998  d :     0.091339
      dxz     :     0.024742
      dyz     :     0.011451
      dx2y2   :     0.020730
      dxy     :     0.022417

 14 H s       :     0.880619  s :     0.880619
      pz      :     0.030546  p :     0.070955
      px      :     0.025170
      py      :     0.015240

 15 C s       :     2.876095  s :     2.876095
      pz      :     1.009061  p :     3.115214
      px      :     1.073013
      py      :     1.033140
      dz2     :     0.009337  d :     0.085532
      dxz     :     0.027531
      dyz     :     0.011082
      dx2y2   :     0.016881
      dxy     :     0.020701

 16 H s       :     0.916790  s :     0.916790
      pz      :     0.025365  p :     0.068843
      px      :     0.015677
      py      :     0.027801

 17 C s       :     2.848375  s :     2.848375
      pz      :     1.021901  p :     2.948002
      px      :     0.961408
      py      :     0.964693
      dz2     :     0.018459  d :     0.156182
      dxz     :     0.041949
      dyz     :     0.036592
      dx2y2   :     0.021153
      dxy     :     0.038028

 18 H s       :     0.937700  s :     0.937700
      pz      :     0.020758  p :     0.073615
      px      :     0.017508
      py      :     0.035349

 19 O s       :     3.461821  s :     3.461821
      pz      :     1.584354  p :     4.670774
      px      :     1.437382
      py      :     1.649038
      dz2     :     0.002450  d :     0.023985
      dxz     :     0.010298
      dyz     :     0.004725
      dx2y2   :     0.002648
      dxy     :     0.003864

 20 H s       :     0.760199  s :     0.760199
      pz      :     0.066706  p :     0.178828
      px      :     0.063184
      py      :     0.048937

 21 C s       :     2.843354  s :     2.843354
      pz      :     1.025866  p :     2.875710
      px      :     0.966953
      py      :     0.882891
      dz2     :     0.112561  d :     0.325820
      dxz     :     0.099342
      dyz     :     0.068145
      dx2y2   :     0.027191
      dxy     :     0.018582

 22 O s       :     3.570344  s :     3.570344
      pz      :     1.572707  p :     4.825020
      px      :     1.675681
      py      :     1.576632
      dz2     :     0.005581  d :     0.024283
      dxz     :     0.008995
      dyz     :     0.004886
      dx2y2   :     0.002256
      dxy     :     0.002564

 23 O s       :     3.587002  s :     3.587002
      pz      :     1.455992  p :     4.573787
      px      :     1.651293
      py      :     1.466501
      dz2     :     0.013162  d :     0.028871
      dxz     :     0.008526
      dyz     :     0.005484
      dx2y2   :     0.000857
      dxy     :     0.000842



                      *****************************
                      * MAYER POPULATION ANALYSIS *
                      *****************************

  NA   - Mulliken gross atomic population
  ZA   - Total nuclear charge
  QA   - Mulliken gross atomic charge
  VA   - Mayer's total valence
  BVA  - Mayer's bonded valence
  FA   - Mayer's free valence

  ATOM       NA         ZA         QA         VA         BVA        FA
  0 C      5.9894     6.0000     0.0106     3.8558     3.8558     0.0000
  1 H      1.0278     1.0000    -0.0278     1.0675     1.0675     0.0000
  2 H      0.9943     1.0000     0.0057     1.0158     1.0158     0.0000
  3 C      6.0451     6.0000    -0.0451     3.8934     3.8934     0.0000
  4 C      5.9347     6.0000     0.0653     4.5155     4.5155    -0.0000
  5 O      8.4160     8.0000    -0.4160     2.0853     2.0853    -0.0000
  6 O      8.4581     8.0000    -0.4581     2.0052     2.0052     0.0000
  7 O      8.4463     8.0000    -0.4463     1.9913     1.9913    -0.0000
  8 C      5.8035     6.0000     0.1965     3.8270     3.8270    -0.0000
  9 H      1.1134     1.0000    -0.1134     0.9852     0.9852    -0.0000
 10 C      6.0846     6.0000    -0.0846     3.8387     3.8387    -0.0000
 11 H      1.1012     1.0000    -0.1012     1.0387     1.0387    -0.0000
 12 C      6.0022     6.0000    -0.0022     3.7578     3.7578    -0.0000
 13 C      5.9358     6.0000     0.0642     3.9109     3.9109     0.0000
 14 H      0.9747     1.0000     0.0253     1.0231     1.0231     0.0000
 15 C      6.0932     6.0000    -0.0932     3.8204     3.8204    -0.0000
 16 H      1.0283     1.0000    -0.0283     0.9847     0.9847    -0.0000
 17 C      5.7473     6.0000     0.2527     3.8815     3.8815    -0.0000
 18 H      1.0591     1.0000    -0.0591     1.0666     1.0666    -0.0000
 19 O      8.3263     8.0000    -0.3263     2.0474     2.0474    -0.0000
 20 H      0.8528     1.0000     0.1472     1.0250     1.0250     0.0000
 21 C      5.8839     6.0000     0.1161     4.4704     4.4704     0.0000
 22 O      8.4682     8.0000    -0.4682     2.0098     2.0098     0.0000
 23 O      8.2141     8.0000    -0.2141     2.2799     2.2799     0.0000

  Mayer bond orders larger than 0.100000
B(  0-C ,  1-H ) :   0.9024 B(  0-C ,  2-H ) :   0.9216 B(  0-C ,  3-C ) :   1.9301 
B(  3-C ,  4-C ) :   0.8437 B(  3-C ,  7-O ) :   1.0416 B(  4-C ,  5-O ) :   1.9025 
B(  4-C ,  6-O ) :   1.7609 B(  5-O ,  6-O ) :   0.1145 B(  6-O , 18-H ) :   0.1027 
B(  7-O ,  8-C ) :   0.8758 B(  8-C ,  9-H ) :   0.8833 B(  8-C , 10-C ) :   1.0045 
B(  8-C , 17-C ) :   0.9594 B( 10-C , 11-H ) :   0.9187 B( 10-C , 12-C ) :   1.7373 
B( 12-C , 13-C ) :   1.0951 B( 12-C , 21-C ) :   0.8205 B( 13-C , 14-H ) :   0.9764 
B( 13-C , 15-C ) :   1.7438 B( 15-C , 16-H ) :   0.9678 B( 15-C , 17-C ) :   0.9770 
B( 17-C , 18-H ) :   0.8851 B( 17-C , 19-O ) :   1.0334 B( 19-O , 20-H ) :   0.9775 
B( 21-C , 22-O ) :   1.7022 B( 21-C , 23-O ) :   1.9451 B( 22-O , 23-O ) :   0.1318 


-------
TIMINGS
-------

Total SCF time: 0 days 0 hours 0 min 46 sec 

Total time                  ....      46.614 sec
Sum of individual times     ....      46.034 sec  ( 98.8%)

SCF preparation             ....       1.926 sec  (  4.1%)
Fock matrix formation       ....      42.147 sec  ( 90.4%)
  Startup                   ....       0.285 sec  (  0.7% of F)
  Split-RI-J                ....       3.852 sec  (  9.1% of F)
  Chain of spheres X        ....      26.502 sec  ( 62.9% of F)
  XC integration            ....       6.149 sec  ( 14.6% of F)
    XC Preparation          ....       0.000 sec  (  0.0% of XC)
    Basis function eval.    ....       1.630 sec  ( 26.5% of XC)
    Density eval.           ....       1.015 sec  ( 16.5% of XC)
    XC-Functional eval.     ....       0.284 sec  (  4.6% of XC)
    XC-Potential eval.      ....       1.161 sec  ( 18.9% of XC)
  CPCM terms                ....       4.449 sec  ( 10.6% of F)
Diagonalization             ....       0.000 sec  (  0.0%)
Density matrix formation    ....       0.415 sec  (  0.9%)
Total Energy calculation    ....       0.224 sec  (  0.5%)
Population analysis         ....       0.089 sec  (  0.2%)
Orbital Transformation      ....       0.122 sec  (  0.3%)
Orbital Orthonormalization  ....       0.000 sec  (  0.0%)
DIIS solution               ....       0.681 sec  (  1.5%)
SOSCF solution              ....       0.429 sec  (  0.9%)
Finished LeanSCF after  46.8 sec

Maximum memory used throughout the entire LEANSCF-calculation: 31.3 MB


-------------------------------------------------------------------------------
                          DFT DISPERSION CORRECTION                            
                                                                               
                              DFTD3 V3.1  Rev 1                                
                          USING Becke-Johnson damping                          
-------------------------------------------------------------------------------
The B3LYP functional is recognized
Active option DFTDOPT                   ...         4   

molecular C6(AA) [au] = 6928.104088 


            DFT-D V3
 parameters
 s6 scaling factor         :     1.0000 
 a1 scaling factor         :     0.3981 
 s8 scaling factor         :     1.9889 
 a2 scaling factor         :     4.4211 
 ad hoc parameters k1-k3   :    16.0000     1.3333    -4.0000 

 Edisp/kcal,au: -33.251947657889  -0.052990345939 
 E6   /kcal   : -15.586009181 
 E8   /kcal   : -17.665938477 
 % E8         :  53.127530028 

-------------------------   ----------------
Dispersion correction           -0.052990346
-------------------------   ----------------


-------------------------   --------------------
FINAL SINGLE POINT ENERGY      -836.203836974076
-------------------------   --------------------



           ************************************************************
           *        Program running with 8 parallel MPI-processes     *
           *              working on a common directory               *
           ************************************************************
------------------------------------------------------------------------------
                         ORCA SCF GRADIENT CALCULATION
------------------------------------------------------------------------------

Nuc. rep. gradient        (SHARK) ... done (  0.0 sec)
HCore & Overlap gradient  (SHARK) ... done (  0.2 sec)
Split-RIJ-J gradient      (SHARK) ... done (  1.2 sec)
COSX-gradient                     ... done ( 13.5 sec)
XC gradient                       ... done (  2.7 sec)
CPCM gradient                     ... done (  1.3 sec)
Point charge gradient             ... done (  0.3 sec)
Dispersion correction             ... done (  0.1 sec)

-------------------
DISPERSION GRADIENT
-------------------

   1   C   :    0.000719142    0.000642678    0.001006688
   2   H   :    0.000343235    0.000112923    0.000431404
   3   H   :    0.000306724    0.000201333    0.000183982
   4   C   :    0.000129305    0.000705807    0.001016869
   5   C   :   -0.000096694    0.001011120    0.000602580
   6   O   :    0.000022034    0.000652276    0.000099441
   7   O   :   -0.000394333    0.000649856    0.000348056
   8   O   :   -0.000220778   -0.000103038    0.000726685
   9   C   :   -0.000488344   -0.000591319    0.000271984
  10   H   :   -0.000272164   -0.000351415    0.000241368
  11   C   :    0.000077888   -0.000904605    0.000174017
  12   H   :    0.000066267   -0.000498013    0.000189466
  13   C   :    0.000584812   -0.000586592   -0.000643492
  14   C   :    0.000142879    0.000085973   -0.001183762
  15   H   :    0.000089918    0.000178324   -0.000388192
  16   C   :   -0.000439355    0.000170891   -0.001146286
  17   H   :   -0.000136263    0.000209483   -0.000391133
  18   C   :   -0.000773235   -0.000250700   -0.000383186
  19   H   :   -0.000489896    0.000073365   -0.000064562
  20   O   :   -0.000669994   -0.000218682   -0.000247196
  21   H   :   -0.000370798   -0.000160784   -0.000048445
  22   C   :    0.000761164   -0.000476256   -0.000418709
  23   O   :    0.000634047   -0.000379091   -0.000042387
  24   O   :    0.000474441   -0.000173533   -0.000335190

Difference to translation invariance:
           :   -0.0000000000    0.0000000000    0.0000000000

Difference to rotation invariance:
           :    0.0000000000    0.0000000000    0.0000000000

Norm of the Dispersion gradient    ...    0.0041598468
RMS gradient                       ...    0.0004902426
MAX gradient                       ...    0.0011837618

------------------
CARTESIAN GRADIENT
------------------

   1   C   :   -0.001962021    0.001551238   -0.008255179
   2   H   :   -0.002646679    0.002396252    0.005124721
   3   H   :    0.000300382   -0.001066951    0.001485840
   4   C   :    0.001135181    0.000271996   -0.000585835
   5   C   :   -0.001517155   -0.018194383    0.010268831
   6   O   :    0.001557375    0.008110901   -0.008277532
   7   O   :    0.009692324    0.000708607   -0.007737684
   8   O   :    0.004602697   -0.000675799   -0.018726832
   9   C   :   -0.011796256    0.004859432    0.012025850
  10   H   :    0.005994230    0.000900559   -0.003822419
  11   C   :    0.015709056    0.002259210    0.000802299
  12   H   :   -0.003439118    0.000833531   -0.000565328
  13   C   :   -0.000910829   -0.002470003    0.000859533
  14   C   :   -0.001985568    0.000721761    0.003033292
  15   H   :   -0.001165542    0.002924941    0.000450399
  16   C   :   -0.000646431    0.000391552   -0.003758655
  17   H   :    0.000112336    0.000205301   -0.000579049
  18   C   :   -0.001679523   -0.003090812    0.000571979
  19   H   :    0.001316327   -0.000706074   -0.001971630
  20   O   :    0.003355355    0.004913209   -0.001008529
  21   H   :   -0.001991687   -0.001480370    0.001052777
  22   C   :   -0.034614996    0.005513729    0.039886986
  23   O   :    0.006829760   -0.001589344   -0.028207430
  24   O   :    0.027049258   -0.013603820   -0.028148168

Difference to translation invariance:
           :    0.0132984743   -0.0063153344   -0.0360817630

Difference to rotation invariance:
           :   -1.6421052168    5.4762561458   -1.5986840918

Norm of the Cartesian gradient     ...    0.0855997282
RMS gradient                       ...    0.0100880247
MAX gradient                       ...    0.0398869855

-------
TIMINGS
-------

Total SCF gradient time     ....       19.192 sec

Densities                   ....       0.001 sec  (  0.0%)
One electron gradient       ....       0.190 sec  (  1.0%)
RI-J Coulomb gradient       ....       1.195 sec  (  6.2%)
COSX gradient               ....      13.469 sec  ( 70.2%)
XC gradient                 ....       2.672 sec  ( 13.9%)
CPCM gradient               ....       1.258 sec  (  6.6%)
   A-Matrix (El+Nuc)        ....       0.284 sec  (  1.5%)
   Potential                ....       0.975 sec  (  5.1%)

Maximum memory used throughout the entire SCFGRAD-calculation: 36.0 MB
------------------------------------------------------------------------------
                         ORCA GEOMETRY RELAXATION STEP
------------------------------------------------------------------------------

Reading the OPT-File                    .... done
Number of atoms                         ....  24
Number of degrees of freedom            ....  72
Current Energy                          ....  -836.203836974 Eh
Current gradient norm                   ....     0.085599728 Eh/bohr
Maximum allowed component of the step   ....  0.300
Current trust radius                    ....  0.300
Building the approximate Hessian        .... (Almloef)  done
Building the normal mode matrix         .... done
Forming augmented Hessian.
Diagonalizing augmented Hessian.
Reducing step size.
The input lambda is                     ....    -0.019904
   iter:   5  x=   -0.058861  g=    2.586893 f(x)=     0.002607
The output lambda is                    ....    -0.058886 (8 iterations)
The step size is now                    ....  0.300
Storing new coordinates                 .... done

                                .--------------------.
          ----------------------|Geometry convergence|-------------------------
          Item                value                   Tolerance       Converged
          ---------------------------------------------------------------------
          RMS gradient        0.0100880247            0.0001000000      NO
          MAX gradient        0.0398869855            0.0003000000      NO
          RMS step            0.0353553391            0.0020000000      NO
          MAX step            0.1438450077            0.0040000000      NO
          -------------------------------------------------------------------------

The optimization has not yet converged - more geometry cycles are needed

Geometry step timings:
Preparation and reading OPT file:      0.003 s ( 8.242 %)
Hessian update/contruction      :      0.013 s (34.492 %)
Making the step                 :      0.014 s (37.606 %)
Storing new data                :      0.004 s (11.364 %)
Checking convergence            :      0.003 s ( 8.293 %)
Total time                      :      0.037 s

Time for energy+gradient        :     81.666 s
Time for complete geometry iter :     86.270 s

         *************************************************************
         *                GEOMETRY OPTIMIZATION CYCLE   2            *
         *************************************************************
---------------------------------
CARTESIAN COORDINATES (ANGSTROEM)
---------------------------------
  C     60.103833   34.386630   57.237915
  H     60.608455   33.425071   57.365522
  H     60.714893   35.271644   57.048863
  C     58.767885   34.504753   57.178072
  C     58.071412   35.835620   56.873394
  O     58.807038   36.823668   56.625771
  O     56.821294   35.867086   57.063530
  O     57.925401   33.420149   57.374184
  C     57.674801   32.533736   56.206149
  H     57.000990   31.764960   56.631180
  C     58.969261   31.945144   55.789945
  H     59.460786   31.239520   56.466075
  C     59.682073   32.479672   54.779648
  C     59.068401   33.475426   53.894847
  H     59.707666   33.884106   53.106919
  C     57.787334   33.866701   54.040174
  H     57.336755   34.599869   53.361708
  C     56.891239   33.272560   55.091590
  H     56.344475   34.090771   55.594059
  O     55.965727   32.391912   54.439436
  H     55.312047   32.112155   55.095636
  C     61.127688   32.057145   54.560336
  O     61.768619   31.728084   55.604965
  O     61.535161   32.182632   53.396816

----------------------------
CARTESIAN COORDINATES (A.U.)
----------------------------
  NO LB      ZA    FRAG     MASS         X           Y           Z
   0 C     6.0000    0    12.011  113.579783   64.981313  108.163984
   1 H     1.0000    0     1.008  114.533382   63.164230  108.405127
   2 H     1.0000    0     1.008  114.734521   66.653747  107.806727
   3 C     6.0000    0    12.011  111.055207   65.204534  108.050896
   4 C     6.0000    0    12.011  109.739064   67.719507  107.475138
   5 O     8.0000    0    15.999  111.129196   69.586648  107.007199
   6 O     8.0000    0    15.999  107.376684   67.778970  107.834443
   7 O     8.0000    0    15.999  109.463145   63.154928  108.421496
   8 C     6.0000    0    12.011  108.989578   61.479852  106.214229
   9 H     1.0000    0     1.008  107.716261   60.027075  107.017420
  10 C     6.0000    0    12.011  111.435753   60.367574  105.427717
  11 H     1.0000    0     1.008  112.364601   59.034137  106.705418
  12 C     6.0000    0    12.011  112.782773   61.377685  103.518533
  13 C     6.0000    0    12.011  111.623101   63.259387  101.846501
  14 H     1.0000    0     1.008  112.831137   64.031680  100.357533
  15 C     6.0000    0    12.011  109.202236   63.998789  102.121130
  16 H     1.0000    0     1.008  108.350765   65.384276  100.839014
  17 C     6.0000    0    12.011  107.508861   62.876027  104.108017
  18 H     1.0000    0     1.008  106.475627   64.422221  105.057546
  19 O     8.0000    0    15.999  105.759897   61.211843  102.875624
  20 H     1.0000    0     1.008  104.524620   60.683179  104.115662
  21 C     6.0000    0    12.011  115.514589   60.579224  103.104094
  22 O     8.0000    0    15.999  116.725774   59.957389  105.078155
  23 O     8.0000    0    15.999  116.284602   60.816362  100.905359

--------------------------------
INTERNAL COORDINATES (ANGSTROEM)
--------------------------------
[...]
  Rsolv                                           ...       1.3000
  Surface type                                    ... GAUSSIAN VDW
  Discretization scheme                           ... Constant charge density
    Threshold for H atoms                         ...       5.0000 (charges/Ang^2)
    Threshold for non-H atoms                     ...       5.0000 (charges/Ang^2)
  Epsilon function type                           ...         CPCM
Solvent:                                          ... CUSTOM
Radii:
  Scheme                                          ... Element-dependent radii
  Radius for C  used is    3.8550 Bohr (=   2.0400 Ang.)
  Radius for H  used is    2.4944 Bohr (=   1.3200 Ang.)
  Radius for O  used is    3.4469 Bohr (=   1.8240 Ang.)
Calculating surface                               ...        done! (  0.0s)
Cavity surface points                             ...         2162
Cavity Volume                                     ...    1644.3434
Cavity Surface-area                               ...     884.2442
Calculating surface distance matrix               ...        done! (  0.0s)
Performing Cholesky decomposition & store         ...        done! (  0.5s)
Overall time for CPCM initialization              ...                 0.6s

----------------------------------------D-I-I-S--------------------------------------------
Iteration    Energy (Eh)           Delta-E    RMSDP     MaxDP     DIISErr   Damp  Time(sec)
-------------------------------------------------------------------------------------------
               ***  Starting incremental Fock matrix formation  ***
    1    -836.6435020452599929     0.00e+00  3.53e-04  1.80e-02  2.35e-02  0.700   3.2
Warning: op=0 Small HOMO/LUMO gap (   0.084) - skipping pre-diagonalization
         Will do a full diagonalization
    2    -836.6451593926117312    -1.66e-03  3.41e-04  1.81e-02  1.84e-02  0.700   2.0
                               ***Turning on AO-DIIS***
    3    -836.6464194317663896    -1.26e-03  2.64e-04  1.53e-02  1.36e-02  0.700   2.1
    4    -836.6473173547799433    -8.98e-04  6.28e-04  3.59e-02  9.75e-03  0.000   2.0
                              *** Initializing SOSCF ***
---------------------------------------S-O-S-C-F--------------------------------------
Iteration    Energy (Eh)           Delta-E    RMSDP     MaxDP     MaxGrad    Time(sec)
--------------------------------------------------------------------------------------
    5    -836.6495508368984702    -2.23e-03  2.27e-05  5.36e-04  6.55e-04     2.3
               *** Restarting incremental Fock matrix formation ***
    6    -836.6495578651931737    -7.03e-06  1.94e-05  6.32e-04  9.35e-05     3.3
    7    -836.6495586004621146    -7.35e-07  1.05e-05  2.98e-04  9.41e-05     2.6
    8    -836.6495590823251405    -4.82e-07  5.04e-06  1.42e-04  4.83e-05     2.4
    9    -836.6495590884780995    -6.15e-09  2.94e-06  8.26e-05  5.07e-05     2.3
                 **** Energy Check signals convergence ****

               *****************************************************
               *                     SUCCESS                       *
               *           SCF CONVERGED AFTER   9 CYCLES          *
               *****************************************************

Recomputing exchange energy using gridx3       ... done (    3.584 sec)
Old exchange energy                            :    -20.915499623 Eh
New exchange energy                            :    -20.915448720 Eh
Exchange energy change after final integration :      0.000050903 Eh
Total energy after final integration           :   -836.649508185 Eh
             **** ENERGY FILE WAS UPDATED (job.en.tmp) ****

----------------
TOTAL SCF ENERGY
----------------

Total Energy       :       -836.64950818546095 Eh          -22766.39054 eV

Components:
Nuclear Repulsion  :       1091.95299066557186 Eh           29713.55148 eV
Electronic Energy  :      -1928.32937716247557 Eh          -52472.51000 eV
One Electron Energy:      -3344.16315168872234 Eh          -90999.30567 eV
Two Electron Energy:       1415.83377452624677 Eh           38526.79567 eV
CPCM Dielectric    :         -0.27317259157446 Eh              -7.43340 eV

Virial components:
Potential Energy   :      -1666.67402194127044 Eh          -45352.50581 eV
Kinetic Energy     :        830.02451375580938 Eh           22586.11528 eV
Virial Ratio       :          2.00798168526333

DFT components:
N(Alpha)           :       59.000119585412 electrons
N(Beta)            :       59.000119585412 electrons
N(Total)           :      118.000239170823 electrons
E(X)               :      -83.228096057657 Eh       
E(C)               :       -4.850253458166 Eh       
E(XC)              :      -88.078349515823 Eh       

CPCM Solvation Model Properties:
Surface-charge          :          1.98474935873863
Corrected charge        :          2.00000000000000
Outlying charge corr.   :          0.00001091939153 Eh               0.00030 eV
Free-energy (cav+disp)  :  This term is not implemented in the current solvation scheme

---------------
SCF CONVERGENCE
---------------

  Last Energy change         ...    6.1530e-09  Tolerance :   1.0000e-08
  Last MAX-Density change    ...    8.2608e-05  Tolerance :   1.0000e-07
  Last RMS-Density change    ...    2.9409e-06  Tolerance :   5.0000e-09
  Last DIIS Error            ...    6.5493e-04  Tolerance :   5.0000e-07
  Last Orbital Gradient      ...    5.0672e-05  Tolerance :   1.0000e-05
  Last Orbital Rotation      ...    5.0557e-05  Tolerance :   1.0000e-05


Total SCF time: 0 days 0 hours 0 min 28 sec 
Finished LeanSCF after  29.5 sec

Maximum memory used throughout the entire LEANSCF-calculation: 40.0 MB


-------------------------------------------------------------------------------
                          DFT DISPERSION CORRECTION                            
                                                                               
                              DFTD3 V3.1  Rev 1                                
                          USING Becke-Johnson damping                          
-------------------------------------------------------------------------------
-------------------------   ----------------
Dispersion correction           -0.050784827
-------------------------   ----------------


-------------------------   --------------------
FINAL SINGLE POINT ENERGY      -836.700293012678
-------------------------   --------------------



           ************************************************************
           *        Program running with 8 parallel MPI-processes     *
           *              working on a common directory               *
           ************************************************************
------------------------------------------------------------------------------
                         ORCA SCF GRADIENT CALCULATION
------------------------------------------------------------------------------

Nuc. rep. gradient        (SHARK) ... done (  0.0 sec)
HCore & Overlap gradient  (SHARK) ... done (  0.1 sec)
Split-RIJ-J gradient      (SHARK) ... done (  0.7 sec)
COSX-gradient                     ... done (  9.7 sec)
XC gradient                       ... done (  1.6 sec)
CPCM gradient                     ... done (  0.8 sec)
Point charge gradient             ... done (  0.2 sec)
Dispersion correction             ... done (  0.0 sec)

-------------------
DISPERSION GRADIENT
-------------------

   1   C   :   -0.000044272    0.001139309    0.000734124
   2   H   :    0.000121222    0.000479386    0.000236550
   3   H   :    0.000111661    0.000325142    0.000059284
   4   C   :   -0.000394562    0.000469131    0.000893323
   5   C   :   -0.000277511    0.000162837    0.000579456
   6   O   :   -0.000252199    0.000203317    0.000371370
   7   O   :   -0.000203753   -0.000110097    0.000470263
   8   O   :   -0.000327692   -0.000247711    0.000446940
   9   C   :   -0.000347591   -0.000622153   -0.000034614
  10   H   :   -0.000211080   -0.000454823    0.000063073
  11   C   :    0.000359954   -0.000833218    0.000078766
  12   H   :    0.000228364   -0.000449168    0.000198419
  13   C   :    0.000831276   -0.000286336   -0.000365764
  14   C   :    0.000312986    0.000063763   -0.000953160
  15   H   :    0.000120847    0.000088605   -0.000375155
  16   C   :   -0.000229430    0.000161188   -0.001020873
  17   H   :   -0.000081460    0.000143442   -0.000348483
  18   C   :   -0.000634689   -0.000157027   -0.000558075
  19   H   :   -0.000449877    0.000164357   -0.000210869
  20   O   :   -0.000560530   -0.000161399   -0.000316707
  21   H   :   -0.000380470   -0.000087205   -0.000114454
  22   C   :    0.000970010   -0.000058740    0.000003658
  23   O   :    0.000702677   -0.000111114    0.000251847
  24   O   :    0.000636119    0.000178514   -0.000088920

Difference to translation invariance:
           :   -0.0000000000    0.0000000000    0.0000000000

Difference to rotation invariance:
           :    0.0000000000   -0.0000000000   -0.0000000000

Norm of the Dispersion gradient    ...    0.0036844567
RMS gradient                       ...    0.0004342174
MAX gradient                       ...    0.0011393086

------------------
CARTESIAN GRADIENT
------------------

   1   C   :    0.005026168    0.007719610   -0.000297745
   2   H   :    0.007266734   -0.005143683   -0.000617242
   3   H   :    0.000373536   -0.002540472   -0.000780562
   4   C   :   -0.010240377   -0.008241951    0.005028799
   5   C   :   -0.005232936    0.000064567    0.004299895
   6   O   :   -0.000131259    0.001222724   -0.000000871
   7   O   :    0.002538736   -0.000769855   -0.009623130
   8   O   :    0.002608620    0.002415037   -0.004917897
   9   C   :    0.001127317    0.005716672    0.001911560
  10   H   :   -0.001912700   -0.002951525   -0.000608352
  11   C   :    0.001432644   -0.001762538   -0.000989848
  12   H   :   -0.000125673   -0.001154844    0.000727400
  13   C   :    0.006764714    0.001317403    0.000033052
  14   C   :   -0.008846652    0.001009863   -0.003021216
  15   H   :    0.000609055   -0.000237618    0.000069395
  16   C   :    0.004671746    0.000141220    0.004721668
  17   H   :   -0.002117416    0.001273361   -0.003618677
  18   C   :   -0.001154157   -0.001382324    0.000748867
  19   H   :    0.000117314   -0.001063531   -0.000691226
  20   O   :    0.004794572    0.001276988   -0.003061591
  21   H   :   -0.005561717   -0.000318079    0.003211857
  22   C   :    0.006641240   -0.002209819    0.005941379
  23   O   :   -0.004809275    0.008530245   -0.019751679
  24   O   :   -0.006688487   -0.008492302    0.009332113

Difference to translation invariance:
           :   -0.0028482516   -0.0055808534   -0.0119540521

Difference to rotation invariance:
           :   -0.1099762598    1.0207868360   -0.4564278994

Norm of the Cartesian gradient     ...    0.0408264044
RMS gradient                       ...    0.0048114379
MAX gradient                       ...    0.0197516786

-------
TIMINGS
-------

Total SCF gradient time     ....       13.121 sec

Densities                   ....       0.001 sec  (  0.0%)
One electron gradient       ....       0.093 sec  (  0.7%)
RI-J Coulomb gradient       ....       0.699 sec  (  5.3%)
COSX gradient               ....       9.694 sec  ( 73.9%)
XC gradient                 ....       1.559 sec  ( 11.9%)
CPCM gradient               ....       0.832 sec  (  6.3%)
   A-Matrix (El+Nuc)        ....       0.185 sec  (  1.4%)
   Potential                ....       0.647 sec  (  4.9%)

Maximum memory used throughout the entire SCFGRAD-calculation: 35.4 MB
------------------------------------------------------------------------------
                         ORCA GEOMETRY RELAXATION STEP
------------------------------------------------------------------------------

Reading the OPT-File                    .... done
Number of atoms                         ....  24
Number of degrees of freedom            ....  72
Current Energy                          ....  -836.700293013 Eh
Current gradient norm                   ....     0.040826404 Eh/bohr
Maximum allowed component of the step   ....  0.300
Current trust radius                    ....  0.467
Updating the approximate Hessian        .... done
Forming augmented Hessian.
Diagonalizing augmented Hessian.
Reducing step size.
The input lambda is                     ....    -0.005237
   iter:   5  x=   -0.008863  g=   45.222370 f(x)=     0.000019
The output lambda is                    ....    -0.008863 (7 iterations)
The step size is now                    ....  0.467
Storing new coordinates                 .... done
The predicted energy change is          .... -0.002940694
Previously predicted energy change      .... -0.005484943
Actually observed energy change         .... -0.005733843
Ratio of predicted to observed change   .... 1.045378806
New trust radius                        .... 0.700000000

                                .--------------------.
          ----------------------|Geometry convergence|-------------------------
          Item                value                   Tolerance       Converged
          ---------------------------------------------------------------------
          Energy change      -0.0057338427            0.0000050000      NO
          RMS gradient        0.0048114379            0.0001000000      NO
          MAX gradient        0.0197516786            0.0003000000      NO
          RMS step            0.0549971941            0.0020000000      NO
          MAX step            0.1677409978            0.0040000000      NO
          -------------------------------------------------------------------------

The optimization has not yet converged - more geometry cycles are needed

Geometry step timings:
Preparation and reading OPT file:      0.005 s (16.732 %)
Hessian update/contruction      :      0.014 s (48.355 %)
Making the step                 :      0.002 s ( 5.569 %)
Storing new data                :      0.002 s ( 8.615 %)
Checking convergence            :      0.006 s (20.725 %)
Total time                      :      0.029 s

Time for energy+gradient        :     56.956 s
Time for complete geometry iter :     66.090 s




    ----------------------------------------------------------------------------
                                  WARNING !!!
       The optimization did not converge but reached the maximum number of
       optimization cycles.
       Please check your results very carefully.
    ----------------------------------------------------------------------------



--------------------------------
SUGGESTED CITATIONS FOR THIS RUN
--------------------------------

Below you find a list of papers that are relevant to this ORCA run
We neither can nor want to force you to cite these papers, but we appreciate if you do
You receive ORCA, which is the product of decades of hard work by many enthusiastic individuals, for free
The only thing we kindly ask in return is that you cite our papers,
We deeply appreciate it, if you show your appreciation for ORCA by not just citing the generic ORCA reference.

Please note that relegating all ORCA citations to the supporting information does *not* help us.
SI sections are not indexed - citations you put there will not count into any citation statistics
But we need these citations in order to attract the funding resources that allow us to do what we are doing

Therefore, if you are a happy ORCA user, please consider citing a few of the papers listed below in the main body of your paper

In addition to the list printed below, the program has created the file job.bibtex that contains the list in bibtex format
You can import this file easily into all common literature databanks and citation aid programs


List of essential papers. We consider these as the minimum necessary citations

  1. Neese,F.
     Software update: the ORCA program system, version 5.0
     WIRES Comput. Molec. Sci., 2022 12(1)e1606
     doi.org/10.1002/wcms.1606

List of papers to cite with high priority. The work reported in these papers was absolutely
necessary for this run to complete.
Our perspective: the developers of density functionals and basis sets usually get cited in chemistry papers
Good! But without the algorithms to do something with them, the functionals or basis sets would not do anything.
Hence, in our opinion, the algorithm design and method developments papers are equally worthy of getting cited

  1. Neese,F.
     An improvement of the resolution of the identity approximation for the formation of the Coulomb matrix
     J. Comp. Chem., 2003 24(14)1740-1747
     doi.org/10.1002/jcc.10318
  2. Neese,F.; Wennmohs,F.; Hansen,A.; Becker,U.
     Efficient, approximate and parallel Hartree-Fock and hybrid DFT calculations. A 'chain-of-spheres' algorithm for the Hartree-Fock exchange
     Chem. Phys., 2009 356(1-3)98-109
     doi.org/10.1016/j.chemphys.2008.10.036
  3. Garcia-Rates,M.; Neese,F.
     Effect of the Solute Cavity on the Solvation Energy and its Derivatives within the Framework of the Gaussian Charge Scheme
     J. Comput. Chem., 2020 41 922-939
     doi.org/10.1002/jcc.26139
  4. Helmich-Paris,B.; de Souza,B.; Neese,F.; Izsák,R.
     An improved chain of spheres for exchange algorithm
     J. Chem. Phys., 2021 155 104109
     doi.org/doi: 10.1063/5.0058766.
  5. Neese,F.
     The SHARK Integral Generation and Digestion System
     J. Comp. Chem., 2022  1-16
     doi.org/10.1002/jcc.26942
  6. Grimme,S.; Antony,J.; Ehrlich,S.; Krieg,H.
     A consistent and accurate ab initio parametrization of density functional dispersion correction (DFT-D) for the 94 elements H-Pu
     J. Chem. Phys., 2010 132 154104
     doi.org/10.1063/1.3382344
  7. Grimme,S.; Ehrlich,S.; Goerigk,L.
     Effect of the damping function in dispersion corrected density functional theory
     J. Comput. Chem., 2011 32(7)1456-1465
     doi.org/10.1002/jcc.21759

List of suggested additional citations. These are papers that are important in the 'surrounding' of 
of this run, or papers that preceded the highly important papers. If you like your results we are grateful for a citation.

  1. Izsak,R.; Neese,F.
     An overlap fitted chain of spheres exchange method
     J. Chem. Phys., 2011 135 144105
     doi.org/10.1063/1.3646921
  2. Izsak,R.; Hansen,A.; Neese,F.
     The resolution of identity and chain of spheres approximations for the LPNO-CCSD singles Fock term
     Molec. Phys., 2012 110 2413-2417
     doi.org/10.1080/00268976.2012.687466
  3. Neese,F.
     The ORCA program system
     WIRES Comput. Molec. Sci., 2012 2(1)73-78
     doi.org/10.1002/wcms.81
  4. Izsak,R.; Neese,F.; Klopper,W.
     Robust fitting techniques in the chain of spheres approximation to the Fock exchange: The role of the complementary space
     J. Chem. Phys., 2013 139 
     doi.org/10.1063/1.4819264
  5. Neese,F.
     Software update: the ORCA program system, version 4.0
     WIRES Comput. Molec. Sci., 2018 8(1)1-6
     doi.org/10.1002/wcms.1327
  6. Neese,F.; Wennmohs,F.; Becker,U.; Riplinger,C.
     The ORCA quantum chemistry program package
     J. Chem. Phys., 2020 152 Art. No. L224108
     doi.org/10.1063/5.0004608

List of optional additional citations

  1. Neese,F.
     Approximate second-order SCF convergence for spin unrestricted wavefunctions
     Chem. Phys. Lett., 2000 325(1-3)93-98
     doi.org/10.1016/s0009-2614(00)00662-x

Timings for individual modules:

Sum of individual times          ...     4283.239 sec (=  71.387 min)
Startup calculation              ...      386.765 sec (=   6.446 min)   9.0 %
SCF iterations                   ...     2714.874 sec (=  45.248 min)  63.4 %
SCF Gradient evaluation          ...     1179.160 sec (=  19.653 min)  27.5 %
Geometry relaxation              ...        2.440 sec (=   0.041 min)   0.1 %
                             ****ORCA TERMINATED NORMALLY****
TOTAL RUN TIME: 0 days 1 hours 19 minutes 17 seconds 99 msec
