
                                 *****************
                                 * O   R   C   A *
                                 *****************

                                            #,                                       
                                            ###                                      
                                            ####                                     
                                            #####                                    
                                            ######                                   
                                           ########,                                 
                                     ,,################,,,,,                         
                               ,,#################################,,                 
                          ,,##########################################,,             
                       ,#########################################, ''#####,          
                    ,#############################################,,   '####,        
                  ,##################################################,,,,####,       
                ,###########''''           ''''###############################       
              ,#####''   ,,,,##########,,,,          '''####'''          '####       
            ,##' ,,,,###########################,,,                        '##       
           ' ,,###''''                  '''############,,,                           
         ,,##''                                '''############,,,,        ,,,,,,###''
      ,#''                                            '''#######################'''  
     '                                                          ''''####''''         
             ,#######,   #######,   ,#######,      ##                                
            ,#'     '#,  ##    ##  ,#'     '#,    #''#        ,####,   ,####,        
            ##       ##  ##   ,#'  ##            #'  '#       #'       #'  '#        
            ##       ##  #######   ##           ,######,      #####,   #    #        
            '#,     ,#'  ##    ##  '#,     ,#' ,#      #,     #,   #   #,  ,#        
             '#######'   ##     ##  '#######'  #'      '#     '####' # '####'        



                #########################################################
                #                        -***-                          #
                #          Department of theory and spectroscopy        #
                #                                                       #
                #                      Frank Neese                      #
                #                                                       #
                #     Directorship, Architecture, Infrastructure        #
                #                    SHARK, DRIVERS                     #
                #        Core code/Algorithms in most modules           #
                #                                                       #
                #        Max Planck Institute fuer Kohlenforschung      #
                #                Kaiser Wilhelm Platz 1                 #
                #                 D-45470 Muelheim/Ruhr                 #
                #                      Germany                          #
                #                                                       #
                #                  All rights reserved                  #
                #                        -***-                          #
                #########################################################


                         Program Version 6.0.1  -  RELEASE   -


 With contributions from (in alphabetic order):
[Max-Planck-Institut fuer Kohlenforschung]                               
  Daniel Aravena         : Magnetic Suceptibility                        
  Michael Atanasov       : Ab Initio Ligand Field Theory (pilot matlab implementation)
  Alexander A. Auer      : GIAO ZORA, VPT2 properties, NMR spectrum      
  Ute Becker             : All parallelization in ORCA, NUMFREQ, NUMCALC 
  Giovanni Bistoni       : ED, misc. LED, open-shell LED, HFLD           
  Martin Brehm           : Molecular dynamics                            
  Dmytro Bykov           : pre 5.0 version of the SCF Hessian            
  Marcos Casanova-Páez   : Triplet and SCS-CIS(D). UHF-(DLPNO)-IP/EA/STEOM-CCSD. UHF-CVS-IP/STEOM-CCSD   
  Vijay G. Chilkuri      : MRCI spin determinant printing, contributions to CSF-ICE 
  Pauline Colinet        : FMM embedding                                 
  Dipayan Datta          : RHF DLPNO-CCSD density                        
  Achintya Kumar Dutta   : EOM-CC, STEOM-CC                              
  Nicolas Foglia         : Exact transition moments, OPA infrastructure, MCD improvements    
  Dmitry Ganyushin       : Spin-Orbit,Spin-Spin,Magnetic field MRCI      
  Miquel Garcia-Rates    : C-PCM and meta-GGA Hessian, CCSD/C-PCM, Gaussian charge scheme 
  Tiago L. C. Gouveia    : GS-ROHF, GS-ROCIS                             
  Yang Guo               : DLPNO-NEVPT2, F12-NEVPT2, CIM, IAO-localization        
  Andreas Hansen         : Spin unrestricted coupled pair/coupled cluster methods 
  Ingolf Harden          : AUTO-CI MPn and infrastructure                
  Benjamin Helmich-Paris : MC-RPA, TRAH-(SCF,CASSCF), AVAS, COSX integrals, SCF dyn. polar. 
  Lee Huntington         : MR-EOM, pCC                                   
  Robert Izsak           : Overlap fitted RIJCOSX, COSX-SCS-MP3, EOM     
  Riya Kayal             : Wick's Theorem for AUTO-CI, AUTO-CI UHF-CCSDT 
  Emily Kempfer          : AUTO-CI, RHF CISDT and CCSDT                  
  Christian Kollmar      : KDIIS, OOCD, Brueckner-CCSD(T), CCSD density, CASPT2, CASPT2-K, improved NEVPT2 
  Axel Koslowski         : Symmetry handling                             
  Simone Kossmann        : meta-GGA functionals, TD-DFT gradient, OOMP2, (MP2 Hessian; deprecated post 5.0) 
  Lucas Lang             : DCDCAS                                        
  Marvin Lechner         : AUTO-CI (C++ implementation), FIC-MRCC        
  Spencer Leger          : CASSCF response                               
  Dagmar Lenk            : GEPOL surface, SMD, ORCA-2-JSON               
  Dimitrios Liakos       : Extrapolation schemes; Compound Job, initial MDCI parallelization 
  Dimitrios Manganas     : Further ROCIS development; embedding schemes. LFT, Crystal Embedding 
  Dimitrios Pantazis     : SARC Basis sets                               
  Anastasios Papadopoulos: AUTO-CI, single reference methods and gradients 
  Taras Petrenko         : pre 6.0 DFT Hessian and TD-DFT gradient, (ASA, deprecated), ECA, 1-Electron XAS/XES, NRVS 
  Peter Pinski           : DLPNO-MP2, DLPNO-MP2 Gradient                 
  Christoph Reimann      : Effective Core Potentials                     
  Marius Retegan         : Local ZFS, SOC                                
  Christoph Riplinger    : Optimizer, TS searches, QM/MM, DLPNO-CCSD(T), (RO)-DLPNO pert. Triples 
  Michael Roemelt        : Original ROCIS implementation                 
  Masaaki Saitow         : Open-shell DLPNO-CCSD energy and density      
  Barbara Sandhoefer     : DKH picture change effects                    
  Kantharuban Sivalingam : CASSCF convergence/infrastructure, NEVPT2 and variants, FIC-MRCI 
  Bernardo de Souza      : ESD, SOC TD-DFT                               
  Georgi L. Stoychev     : AutoAux, RI-MP2 NMR, DLPNO-MP2 response, X2C  
  Van Anh Tran           : RI-MP2 g-tensors                              
  Willem Van den Heuvel  : Paramagnetic NMR                              
  Zikuan Wang            : NOTCH, Electric field optimization            
  Frank Wennmohs         : Technical directorship and infrastructure     
  Hang Xu                : AUTO-CI-Response properties                   
                                                                         
[FACCTs GmbH]                                                            
  Markus Bursch, Miquel Garcia-Rates, Christoph Riplinger, Bernardo de Souza, Georgi L. Stoychev 
                                                                 
  APM, Basis sets (HGBS, AHGBS, def-TZVP (Ac-Lr), def2-XVPD (La-Lu)), CI-OPT, improved COSX, DLPNO-Multilevel,           
  DOCKER, DRACO, updates on ESD, GOAT, IRC, LR-CPCM, MBIS, meta-GGA TD-DFT gradient, ML-optimized integration grids, 
  MM, NACMEs, nearIR, NEB, NEB-TS, NL-DFT gradient (VV10), 2- and 3-layer-ONIOM, interface openCOSMO-RS, QMMM,   
  Crystal-QMMM, SF, symmetry and pop. for TD-DFT, r2SCAN hybrids, SOLVATOR                                   
                                                                         
[Other institutions]                                                     
  V. Asgeirsson          : NEB                                           
  Christoph Bannwarth    : sTDA-DFT, sTD-DFT, PBEh-3c, B97-3c, D3        
  Sebastian Ehlert       : rSCAN, r2SCAN, r2SCAN-3c, D4, dhf basis sets  
  Marvin Friede          : D4 for Fr, Ra, Ac-Lr                          
  Lars Goerigk           : TD-DFT with DH, B97 family of functionals     
  Stefan Grimme          : VdW corrections, initial TS optimization, DFT functionals, gCP, sTDA/sTD-DF 
  Waldemar Hujo          : DFT-NL                                        
  H. Jonsson             : NEB                                           
  Holger Kruse           : gCP                                           
  Marcel Mueller         : wB97X-3c, vDZP basis set                      
  Hagen Neugebauer       : wr2SCAN                                       
  Tobias Risthaus        : range-separated hybrid DFT                    
  Lukas Wittmann         : regularized MP2, r2SCAN double-hybrids, wr2SCAN        
                                                                         
We gratefully acknowledge several colleagues who have allowed us to      
interface, adapt or use parts of their codes:                            
  Ed Valeev, F. Pavosevic, A. Kumar             : LibInt (2-el integral package), F12 methods 
  Garnet Chan, S. Sharma, J. Yang, R. Olivares  : DMRG                   
  Ulf Ekstrom                                   : XCFun DFT Library      
  Mihaly Kallay                                 : mrcc  (arbitrary order and MRCC methods)
  Frank Weinhold                                : gennbo (NPA and NBO analysis)           
  Simon Mueller                                 : openCOSMO-RS                            
  Christopher J. Cramer and Donald G. Truhlar   : smd solvation model                     
  S Lehtola, MJT Oliveira, MAL Marques          : LibXC Library                           
  Liviu Ungur et al                             : ANISO software                          


 Your calculation uses the libint2 library for the computation of 2-el integrals
 For citations please refer to: http://libint.valeyev.net

 Your ORCA version has been built with support for libXC version: 6.2.2
 For citations please refer to: https://libxc.gitlab.io

 This ORCA versions uses:
   CBLAS   interface :  Fast vector & matrix operations
   LAPACKE interface :  Fast linear algebra routines
   SCALAPACK package :  Parallel linear algebra routines
   Shared memory     :  Shared parallel matrices
   BLAS/LAPACK       :  OpenBLAS 0.3.27  USE64BITINT DYNAMIC_ARCH NO_AFFINITY SkylakeX SINGLE_THREADED
        Core in use  :  SkylakeX
   Copyright (c) 2011-2014, The OpenBLAS Project


NOTE: MaxCore=3000 MB was set to SCF,MP2,MDCI,CIPSI,MRCI and CIS
      => If you want to overwrite this, your respective input block should be placed after the MaxCore statement


***************************************
The coordinates will be read from file: start.xyz
***************************************


Your calculation utilizes the atom-pairwise dispersion correction
with the Becke-Johnson damping scheme (D3BJ)


================================================================================

----- Orbital basis set information -----
Your calculation utilizes the basis: def2-SVP
   F. Weigend and R. Ahlrichs, Phys. Chem. Chem. Phys. 7, 3297 (2005).

----- AuxJ basis set information -----
Your calculation utilizes the auxiliary basis: def2/J
   F. Weigend, Phys. Chem. Chem. Phys. 8, 1057 (2006).

================================================================================
                                        WARNINGS
                       Please study these warnings very carefully!
================================================================================


WARNING: Geometry Optimization
  ===> : Switching off AutoStart
         For restart on a previous wavefunction, please use MOREAD

WARNING: The chosen methods will break translational/rotational symmetry
  ===> : Will NOT project out the translational and rotational degrees of freedom
         of the Hessians, in case Hessians are calculated!

WARNING: The chosen methods will break translational symmetry
  ===> : Will NOT exploit translational invariance of the Hessians,
         in case Hessians are calculated!

WARNING: The chosen methods will break translational symmetry
  ===> : Will NOT make the numerical gradients translationally invariant,
         in case numerical gradients are calculated!

================================================================================
                                       INPUT FILE
================================================================================
NAME = job.inp
|  1> ! B3LYP D3BJ def2-SVP def2/J RIJCOSX CPCM TightSCF Opt
|  2> %maxcore 3000
|  3> %pal nprocs 8 end
|  4> %cpcm epsilon 4.0 end
|  5> %scf MaxIter 300 end
|  6> %geom
|  7>    coordsys cartesian
|  8>    Calc_Hess true
|  9>    Recalc_Hess 5
| 10>    MaxIter 60
| 11> end
| 12> %pointcharges "design.pc"
| 13> * xyzfile -2 1 start.xyz
| 14> 
| 15>                          ****END OF INPUT****
================================================================================

                       *****************************
                       * Geometry Optimization Run *
                       *****************************

Geometry optimization settings:
Update method            Update   .... BFGS
Choice of coordinates    CoordSys .... Cartesian
Initial Hessian          InHess   .... Almloef's Model
Max. no of cycles        MaxIter  .... 60

Convergence Tolerances:
Energy Change            TolE     ....  5.0000e-06 Eh
Max. Gradient            TolMAXG  ....  3.0000e-04 Eh/bohr
RMS Gradient             TolRMSG  ....  1.0000e-04 Eh/bohr
Max. Displacement        TolMAXD  ....  4.0000e-03 bohr
RMS Displacement         TolRMSD  ....  2.0000e-03 bohr
Strict Convergence                .... False

------------------------------------------------------------------------------
                        ORCA OPTIMIZATION COORDINATE SETUP
------------------------------------------------------------------------------

The optimization will be done in Cartesian displacement coordinates
Initial hessian                         .... (will be read on the fly)  done
Number of atoms                         .... 24
Number of degrees of freedom            .... 72
Constrained atoms:                      

         *************************************************************
         *                GEOMETRY OPTIMIZATION CYCLE   1            *
         *************************************************************
---------------------------------
CARTESIAN COORDINATES (ANGSTROEM)
---------------------------------
  C     60.092356   34.056984   56.354594
  H     60.757862   33.544930   57.062775
  H     60.607676   34.925793   55.921397
  C     58.844721   34.465867   57.095841
  C     58.158936   35.830179   56.839235
  O     58.893519   36.799815   56.528907
  O     56.917200   35.847731   56.992850
  O     58.307613   33.702214   57.875302
  C     57.548698   31.938147   55.699735
  H     56.940391   31.183730   56.203549
  C     58.878432   31.920015   55.800043
  H     59.399305   31.165241   56.389488
  C     59.744487   33.008977   55.219846
  C     59.028550   33.707589   54.087981
  H     59.670812   34.192743   53.346365
  C     57.695381   33.716804   53.971810
  H     57.195032   34.246401   53.154887
  C     56.810468   33.035130   54.981426
  H     56.513401   33.810335   55.714955
  O     55.640479   32.543634   54.338392
  H     55.032504   32.220885   55.020192
  C     61.077105   32.332661   54.739361
  O     61.765259   31.766738   55.625475
  O     61.336808   32.358221   53.517478

----------------------------
CARTESIAN COORDINATES (A.U.)
----------------------------
  NO LB      ZA    FRAG     MASS         X           Y           Z
   0 C     6.0000    0    12.011  113.558096   64.358373  106.494749
   1 H     1.0000    0     1.008  114.815720   63.390731  107.833017
   2 H     1.0000    0     1.008  114.531909   66.000184  105.676125
   3 C     6.0000    0    12.011  111.200407   65.131050  107.895503
   4 C     6.0000    0    12.011  109.904461   67.709226  107.410588
   5 O     8.0000    0    15.999  111.292622   69.541572  106.824153
   6 O     8.0000    0    15.999  107.557920   67.742394  107.700878
   7 O     8.0000    0    15.999  110.185420   63.687955  109.368471
   8 C     6.0000    0    12.011  108.751279   60.354351  105.257245
   9 H     1.0000    0     1.008  107.601745   58.928710  106.209315
  10 C     6.0000    0    12.011  111.264112   60.320087  105.446800
  11 H     1.0000    0     1.008  112.248419   58.893770  106.560689
  12 C     6.0000    0    12.011  112.900718   62.377926  104.350386
  13 C     6.0000    0    12.011  111.547794   63.698112  102.211471
  14 H     1.0000    0     1.008  112.761493   64.614920  100.810020
  15 C     6.0000    0    12.011  109.028469   63.715526  101.991940
  16 H     1.0000    0     1.008  108.082947   64.716319  100.448179
  17 C     6.0000    0    12.011  107.356226   62.427348  103.899838
  18 H     1.0000    0     1.008  106.794851   63.892274  105.286007
  19 O     8.0000    0    15.999  105.145267   61.498556  102.684679
  20 H     1.0000    0     1.008  103.996361   60.888648  103.973095
  21 C     6.0000    0    12.011  115.419002   61.099874  103.442401
  22 O     8.0000    0    15.999  116.719424   60.030435  105.116914
  23 O     8.0000    0    15.999  115.909769   61.148176  101.133377

--------------------------------
INTERNAL COORDINATES (ANGSTROEM)
--------------------------------
 C      0   0   0     0.000000000000     0.00000000     0.00000000
 H      1   0   0     1.098461589548     0.00000000     0.00000000
 H      1   2   0     1.099110286409   109.78698018     0.00000000
 C      1   2   3     1.507721962407   108.10754442   238.10179376
 C      4   1   2     1.548384622374   121.59948918   140.32174127
 O      5   4   1     1.255432046735   117.53864483   327.72138291
 O      5   4   1     1.251324871736   115.56432106   149.08715400
 O      4   1   2     1.216227922140   120.67977853   316.90378392
 C      8   4   1     2.901891819004    90.95760493   292.24654346
 H      9   8   4     1.092250412101   102.69242948   185.09396939
 C      9   8   4     1.333635248126    72.00809656    66.55081892
 H     11   9   8     1.090154980372   121.76798256    93.77119460
 C     11   9   8     1.507487333041   122.27966865   279.72805629
 C     13  11   9     1.510543906260   110.49891247   335.78526542
 H     14  13  11     1.094472097322   115.76072218   204.77637574
 C     14  13  11     1.338252666736   122.71019010    23.42569354
 H     16  14  13     1.094616504598   121.56601137   178.73505662
 C      9   8   4     1.504766777501    92.46532995   303.25113900
 H     18   9   8     1.107816044456   109.00241103   336.40747277
 O     18   9   8     1.422650801600   111.55365888   216.37505157
 H     20  18   9     0.968840419071   108.24531154    64.09239291
 C     13  11   9     1.569757911592   107.11519686   213.71427063
 O     22  13  11     1.256591735864   116.30152023   298.78179007
 O     22  13  11     1.249438684969   117.83841463   116.20229709

---------------------------
INTERNAL COORDINATES (A.U.)
---------------------------
 C      0   0   0     0.000000000000     0.00000000     0.00000000
 H      1   0   0     2.075791572878     0.00000000     0.00000000
 H      1   2   0     2.077017432289   109.78698018     0.00000000
 C      1   2   3     2.849181595047   108.10754442   238.10179376
 C      4   1   2     2.926022886262   121.59948918   140.32174127
 O      5   4   1     2.372422748077   117.53864483   327.72138291
 O      5   4   1     2.364661312145   115.56432106   149.08715400
 O      4   1   2     2.298337689273   120.67977853   316.90378392
 C      8   4   1     5.483780808184    90.95760493   292.24654346
 H      9   8   4     2.064054148533   102.69242948   185.09396939
 C      9   8   4     2.520205381502    72.00809656    66.55081892
 H     11   9   8     2.060094356433   121.76798256    93.77119460
 C     11   9   8     2.848738209802   122.27966865   279.72805629
 C     13  11   9     2.854514296094   110.49891247   335.78526542
 H     14  13  11     2.068252525157   115.76072218   204.77637574
 C     14  13  11     2.528931038122   122.71019010    23.42569354
 H     16  14  13     2.068525415361   121.56601137   178.73505662
 C      9   8   4     2.843597104900    92.46532995   303.25113900
 H     18   9   8     2.093468930787   109.00241103   336.40747277
 O     18   9   8     2.688420399227   111.55365888   216.37505157
 H     20  18   9     1.830843059518   108.24531154    64.09239291
 C     13  11   9     2.966412549465   107.11519686   213.71427063
 O     22  13  11     2.374614242931   116.30152023   298.78179007
 O     22  13  11     2.361096935719   117.83841463   116.20229709

---------------------
BASIS SET INFORMATION
---------------------
There are 3 groups of distinct atoms

 Group   1 Type C   : 7s4p1d contracted to 3s2p1d pattern {511/31/1}
 Group   2 Type H   : 4s1p contracted to 2s1p pattern {31/1}
 Group   3 Type O   : 7s4p1d contracted to 3s2p1d pattern {511/31/1}

Atom   0C    basis set group =>   1
Atom   1H    basis set group =>   2
Atom   2H    basis set group =>   2
Atom   3C    basis set group =>   1
Atom   4C    basis set group =>   1
Atom   5O    basis set group =>   3
Atom   6O    basis set group =>   3
Atom   7O    basis set group =>   3
Atom   8C    basis set group =>   1
Atom   9H    basis set group =>   2
Atom  10C    basis set group =>   1
Atom  11H    basis set group =>   2
Atom  12C    basis set group =>   1
Atom  13C    basis set group =>   1
Atom  14H    basis set group =>   2
Atom  15C    basis set group =>   1
Atom  16H    basis set group =>   2
Atom  17C    basis set group =>   1
Atom  18H    basis set group =>   2
Atom  19O    basis set group =>   3
Atom  20H    basis set group =>   2
Atom  21C    basis set group =>   1
Atom  22O    basis set group =>   3
Atom  23O    basis set group =>   3
---------------------------------
AUXILIARY/J BASIS SET INFORMATION
---------------------------------
There are 3 groups of distinct atoms

 Group   1 Type C   : 12s5p4d2f1g contracted to 6s4p3d1f1g pattern {711111/2111/211/2/1}
 Group   2 Type H   : 5s2p1d contracted to 3s1p1d pattern {311/2/1}
 Group   3 Type O   : 12s5p4d2f1g contracted to 6s4p3d1f1g pattern {711111/2111/211/2/1}

Atom   0C    basis set group =>   1
Atom   1H    basis set group =>   2
Atom   2H    basis set group =>   2
Atom   3C    basis set group =>   1
Atom   4C    basis set group =>   1
Atom   5O    basis set group =>   3
Atom   6O    basis set group =>   3
Atom   7O    basis set group =>   3
Atom   8C    basis set group =>   1
Atom   9H    basis set group =>   2
Atom  10C    basis set group =>   1
Atom  11H    basis set group =>   2
Atom  12C    basis set group =>   1
Atom  13C    basis set group =>   1
Atom  14H    basis set group =>   2
Atom  15C    basis set group =>   1
Atom  16H    basis set group =>   2
Atom  17C    basis set group =>   1
Atom  18H    basis set group =>   2
Atom  19O    basis set group =>   3
Atom  20H    basis set group =>   2
Atom  21C    basis set group =>   1
Atom  22O    basis set group =>   3
Atom  23O    basis set group =>   3


           ************************************************************
           *        Program running with 8 parallel MPI-processes     *
           *              working on a common directory               *
           ************************************************************
------------------------------------------------------------------------------
                             ORCA STARTUP CALCULATIONS
                           -- RI-GTO INTEGRALS CHOSEN --
------------------------------------------------------------------------------
------------------------------------------------------------------------------
                   ___                                                        
                  /   \      - P O W E R E D   B Y -                         
                 /     \                                                     
                 |  |  |   _    _      __       _____    __    __             
                 |  |  |  | |  | |    /  \     |  _  \  |  |  /  |          
                  \  \/   | |  | |   /    \    | | | |  |  | /  /          
                 / \  \   | |__| |  /  /\  \   | |_| |  |  |/  /          
                |  |  |   |  __  | /  /__\  \  |    /   |      \           
                |  |  |   | |  | | |   __   |  |    \   |  |\   \          
                \     /   | |  | | |  |  |  |  | |\  \  |  | \   \       
                 \___/    |_|  |_| |__|  |__|  |_| \__\ |__|  \__/        
                                                                              
                      - O R C A' S   B I G   F R I E N D -                    
                                      &                                       
                       - I N T E G R A L  F E E D E R -                       
                                                                              
 v1 FN, 2020, v2 2021, v3 2022-2024                                           
------------------------------------------------------------------------------


----------------------
SHARK INTEGRAL PACKAGE
----------------------

Number of atoms                             ...     24
Number of basis functions                   ...    264
Number of shells                            ...    120
Maximum angular momentum                    ...      2
Integral batch strategy                     ... SHARK/LIBINT Hybrid
RI-J (if used) integral strategy            ... SPLIT-RIJ (Revised 2003 algorithm where possible)
Printlevel                                  ...      1
Contraction scheme used                     ... SEGMENTED contraction
Prescreening option                         ... SCHWARTZ
   Thresh                                   ... 2.500e-11
   Tcut                                     ... 2.500e-12
   Tpresel                                  ... 2.500e-12 
Coulomb Range Separation                    ... NOT USED
Exchange Range Separation                   ... NOT USED
Multipole approximations                    ... NOT USED
Finite Nucleus Model                        ... NOT USED
CABS basis                                  ... NOT available
Auxiliary Coulomb fitting basis             ... AVAILABLE
   # of basis functions in Aux-J            ...    872
   # of shells in Aux-J                     ...    280
   Maximum angular momentum in Aux-J        ...      4
Auxiliary J/K fitting basis                 ... NOT available
Auxiliary Correlation fitting basis         ... NOT available
Auxiliary 'external' fitting basis          ... NOT available

Checking pre-screening integrals            ... done (  0.0 sec) Dimension = 120
Check shell pair data                       ... done (  0.0 sec)
Shell pair information
Shell pair cut-off parameter TPreSel        ...   2.5e-12
Total number of shell pairs                 ...      7260
Shell pairs after pre-screening             ...      6310
Total number of primitive shell pairs       ...     27260
Primitive shell pairs kept                  ...     15842
          la=0 lb=0:   1790 shell pairs
          la=1 lb=0:   2268 shell pairs
          la=1 lb=1:    755 shell pairs
          la=2 lb=0:    837 shell pairs
          la=2 lb=1:    552 shell pairs
          la=2 lb=2:    108 shell pairs

Reading point charge file                   ... ok (4 point charges)
Calculating one electron integrals          ... done (  0.0 sec)
Calculating RI/J V-Matrix + Cholesky decomp.... done (  0.2 sec)
Calculating Nuclear repulsion               ... (+Point charges) done (  0.0 sec) ENN=   1099.296869715602 Eh

Diagonalization of the overlap matrix:
Smallest eigenvalue                        ... 3.936e-04
Time for diagonalization                   ...    0.013 sec
Threshold for overlap eigenvalues          ... 1.000e-07
Number of eigenvalues below threshold      ... 0
Time for construction of square roots      ...    0.041 sec
Total time needed                          ...    0.087 sec

-------------------
DFT GRID GENERATION
-------------------

General Integration Accuracy     IntAcc      ... 4.388
Radial Grid Type                 RadialGrid  ... OptM3 with GC (2021)
Angular Grid (max. ang.)         AngularGrid ... 4 (Lebedev-302)
Angular grid pruning method      GridPruning ... 4 (adaptive)
Weight generation scheme         WeightScheme... mBecke (2022)
Basis function cutoff            BFCut       ... 1.0000e-11
Integration weight cutoff        WCut        ... 1.0000e-14
Partially contracted basis set               ... off
Rotationally invariant grid construction     ... off
Angular grids for H and He will be reduced by one unit

Total number of grid points                  ...   121513
Total number of batches                      ...     1913
Average number of points per batch           ...       63
Average number of grid points per atom       ...     5063

--------------------
COSX GRID GENERATION
--------------------

GRIDX 1
-------
General Integration Accuracy     IntAcc      ... 3.816
Radial Grid Type                 RadialGrid  ... OptM3 with GC (2021)
Angular Grid (max. ang.)         AngularGrid ... 1 (Lebedev-50)
Angular grid pruning method      GridPruning ... 4 (adaptive)
Weight generation scheme         WeightScheme... mBecke (2022)
Basis function cutoff            BFCut       ... 1.0000e-11
Integration weight cutoff        WCut        ... 1.0000e-14
Partially contracted basis set               ... on
Rotationally invariant grid construction     ... off
Angular grids for H and He will be reduced by one unit

Total number of grid points                  ...    15380
Total number of batches                      ...      133
Average number of points per batch           ...      115
Average number of grid points per atom       ...      641
UseSFitting                                  ... on

GRIDX 2
-------
General Integration Accuracy     IntAcc      ... 4.020
Radial Grid Type                 RadialGrid  ... OptM3 with GC (2021)
Angular Grid (max. ang.)         AngularGrid ... 2 (Lebedev-110)
Angular grid pruning method      GridPruning ... 4 (adaptive)
Weight generation scheme         WeightScheme... mBecke (2022)
Basis function cutoff            BFCut       ... 1.0000e-11
Integration weight cutoff        WCut        ... 1.0000e-14
Partially contracted basis set               ... on
Rotationally invariant grid construction     ... off
Angular grids for H and He will be reduced by one unit

Total number of grid points                  ...    34374
Total number of batches                      ...      283
Average number of points per batch           ...      121
Average number of grid points per atom       ...     1432
UseSFitting                                  ... on

GRIDX 3
-------
General Integration Accuracy     IntAcc      ... 4.338
Radial Grid Type                 RadialGrid  ... OptM3 with GC (2021)
Angular Grid (max. ang.)         AngularGrid ... 3 (Lebedev-194)
Angular grid pruning method      GridPruning ... 4 (adaptive)
Weight generation scheme         WeightScheme... mBecke (2022)
Basis function cutoff            BFCut       ... 1.0000e-11
Integration weight cutoff        WCut        ... 1.0000e-14
Partially contracted basis set               ... on
Rotationally invariant grid construction     ... off
Angular grids for H and He will be reduced by one unit

Total number of grid points                  ...    75498
Total number of batches                      ...      602
Average number of points per batch           ...      125
Average number of grid points per atom       ...     3146
UseSFitting                                  ... on
Initializing property integral containers    ... done (  0.0 sec)

SHARK setup successfully completed in   4.5 seconds

Maximum memory used throughout the entire STARTUP-calculation: 34.0 MB


           ************************************************************
           *        Program running with 8 parallel MPI-processes     *
           *              working on a common directory               *
           ************************************************************
-------------------------------------------------------------------------------
                                 ORCA GUESS
                   Start orbitals & Density for SCF / CASSCF
-------------------------------------------------------------------------------

------------
SCF SETTINGS
------------
Hamiltonian:
 Density Functional     Method          .... DFT(GTOs)
 Exchange Functional    Exchange        .... B88
   X-Alpha parameter    XAlpha          ....  0.666667
   Becke's b parameter  XBeta           ....  0.004200
 Correlation Functional Correlation     .... LYP
 LDA part of GGA corr.  LDAOpt          .... VWN-5
 Gradients option       PostSCFGGA      .... off
 Hybrid DFT is turned on
   Fraction HF Exchange ScalHFX         ....  0.200000
   Scaling of DF-GGA-X  ScalDFX         ....  0.720000
   Scaling of DF-GGA-C  ScalDFC         ....  0.810000
   Scaling of DF-LDA-C  ScalLDAC        ....  1.000000
   Perturbative correction              ....  0.000000
   NL short-range parameter             ....  4.800000
 RI-approximation to the Coulomb term is turned on
   Number of AuxJ basis functions       .... 872
   RIJ-COSX (HFX calculated with COS-X)).... on


General Settings:
 Integral files         IntName         .... job
 Hartree-Fock type      HFTyp           .... RHF
 Total Charge           Charge          ....   -2
 Multiplicity           Mult            ....    1
 Number of Electrons    NEL             ....  118
 Basis Dimension        Dim             ....  264
 Nuclear Repulsion      ENuc            ....   1099.2968697156 Eh

Convergence Acceleration:
 AO-DIIS                CNVDIIS         .... on
   Start iteration      DIISMaxIt       ....    12
   Startup error        DIISStart       ....  0.200000
   # of expansion vecs  DIISMaxEq       ....     5
   Bias factor          DIISBfac        ....   1.050
   Max. coefficient     DIISMaxC        ....  10.000
 MO-DIIS                CNVKDIIS        .... off
 Trust-Rad. Augm. Hess. CNVTRAH         .... auto
   Auto Start mean grad. ratio tolernc. ....  1.125000
   Auto Start start iteration           ....    50
   Auto Start num. interpolation iter.  ....    10
   Max. Number of Micro iterations      ....    24
   Max. Number of Macro iterations      .... Maxiter - #DIIS iter
   Number of Davidson start vectors     ....     2
   Converg. threshold    (grad. norm)   ....   1.000e-05
   Grad. Scal. Fac. for Micro threshold ....   0.100
   Minimum threshold for Micro iter.    ....   1.000e-02
   NR start threshold (gradient norm)   ....   1.000e-04
   Initial trust radius                 ....   0.400
   Minimum AH scaling param. (alpha)    ....   1.000
   Maximum AH scaling param. (alpha)    .... 1000.000
   Quad. conv. algorithm                .... NR
   White noise on init. David. guess    .... on
   Maximum white noise                  ....   0.010
   Pseudo random numbers                .... off
   Inactive MOs                         .... canonical
   Orbital update algorithm             .... Taylor
   Preconditioner                       .... Diag
   Full preconditioner red. dimension   ....   250
 SOSCF                  CNVSOSCF        .... on
   Start iteration      SOSCFMaxIt      ....   150
   Startup grad/error   SOSCFStart      ....  0.003300
   Hessian update       SOSCFHessUp     .... L-BFGS
 Level Shifting         CNVShift        .... on
   Level shift para.    LevelShift      ....    0.2500
   Turn off err/grad.   ShiftErr        ....    0.0010
 Zerner damping         CNVZerner       .... off
 Static damping         CNVDamp         .... on
   Fraction old density DampFac         ....    0.7000
   Max. Damping (<1)    DampMax         ....    0.9800
   Min. Damping (>=0)   DampMin         ....    0.0000
   Turn off err/grad.   DampErr         ....    0.1000

SCF Procedure:
 Maximum # iterations   MaxIter         ....   300
 SCF integral mode      SCFMode         .... Direct
   Integral package                     .... SHARK and LIBINT hybrid scheme
 Reset frequency        DirectResetFreq ....    20
 Integral Threshold     Thresh          ....  2.500e-11 Eh
 Primitive CutOff       TCut            ....  2.500e-12 Eh

Convergence Tolerance:
 Convergence Check Mode ConvCheckMode   .... Total+1el-Energy
 Convergence forced     ConvForced      .... 0
 Energy Change          TolE            ....  1.000e-08 Eh
 1-El. energy change                    ....  1.000e-05 Eh
 Orbital Gradient       TolG            ....  1.000e-05
 Orbital Rotation angle TolX            ....  1.000e-05
 DIIS Error             TolErr          ....  5.000e-07

------------------------------
INITIAL GUESS: MODEL POTENTIAL
------------------------------
Loading Hartree-Fock densities                     ... done
Calculating cut-offs                               ... done
Initializing the effective Hamiltonian             ... done
Setting up the integral package (SHARK)            ... done
Starting the Coulomb interaction                   ... done (   0.2 sec)
Making the grid                                    ... done (   0.4 sec)
Mapping shells                                     ... done
Starting the XC term evaluation                    ... done (   0.1 sec)
  promolecular density results
     # of electrons  =    115.998698740
     EX              =   -102.846167807
     EC              =     -4.059360866
     EX+EC           =   -106.905528673
Transforming the Hamiltonian                       ... done (   0.0 sec)
Diagonalizing the Hamiltonian                      ... done (   0.0 sec)
Back transforming the eigenvectors                 ... done (   0.0 sec)
Now organizing SCF variables                       ... done
                      ------------------
                      INITIAL GUESS DONE (   0.8 sec)
                      ------------------
             **** ENERGY FILE WAS UPDATED (job.en.tmp) ****
Finished Guess after   2.1 sec
Maximum memory used throughout the entire GUESS-calculation: 20.0 MB


           ************************************************************
           *        Program running with 8 parallel MPI-processes     *
           *              working on a common directory               *
           ************************************************************

-------------------------------------------------------------------------------------------
                                      ORCA LEAN-SCF
                              memory conserving SCF solver
-------------------------------------------------------------------------------------------

--------------------
CPCM SOLVATION MODEL
--------------------
CPCM parameters:
  Epsilon                                         ...       4.0000
  Refrac                                          ...       1.3300
  Rsolv                                           ...       1.3000
  Surface type                                    ... GAUSSIAN VDW
  Discretization scheme                           ... Constant charge density
    Threshold for H atoms                         ...       5.0000 (charges/Ang^2)
    Threshold for non-H atoms                     ...       5.0000 (charges/Ang^2)
  Epsilon function type                           ...         CPCM
Solvent:                                          ... CUSTOM
Radii:
  Scheme                                          ... Element-dependent radii
  Radius for C  used is    3.8550 Bohr (=   2.0400 Ang.)
  Radius for H  used is    2.4944 Bohr (=   1.3200 Ang.)
  Radius for O  used is    3.4469 Bohr (=   1.8240 Ang.)
Calculating surface                               ...        done! (  0.0s)
Cavity surface points                             ...         2066
Cavity Volume                                     ...    1735.7773
Cavity Surface-area                               ...     851.7065
Calculating surface distance matrix               ...        done! (  0.0s)
Performing Cholesky decomposition & store         ...        done! (  0.4s)
Overall time for CPCM initialization              ...                 0.5s

----------------------------------------D-I-I-S--------------------------------------------
Iteration    Energy (Eh)           Delta-E    RMSDP     MaxDP     DIISErr   Damp  Time(sec)
-------------------------------------------------------------------------------------------
               ***  Starting incremental Fock matrix formation  ***
    1    -834.5346403230646501     0.00e+00  8.11e-03  3.13e-01  4.03e-01  0.700   3.9
Warning: op=0 Small HOMO/LUMO gap (  -0.414) - skipping pre-diagonalization
         LevelShift set to 0.514 Eh
         Will do a full diagonalization
    2    -835.1974022911097109    -6.63e-01  4.86e-03  1.32e-01  1.42e-01  0.700   2.2
                               ***Turning on AO-DIIS***
    3    -835.2710314436926637    -7.36e-02  2.94e-03  7.99e-02  1.66e-01  0.700   2.3
    4    -835.3890307078065689    -1.18e-01  2.33e-03  7.80e-02  1.75e-01  0.700   2.4
    5    -835.5325888161169132    -1.44e-01  1.99e-03  6.77e-02  1.54e-01  0.700   2.3
    6    -835.6600548650947076    -1.27e-01  1.68e-03  5.40e-02  1.24e-01  0.700   2.2
    7    -835.7609854521051602    -1.01e-01  1.48e-03  4.39e-02  9.66e-02  0.700   2.0
    8    -835.8396851608013094    -7.87e-02  4.11e-03  1.11e-01  6.76e-02  0.000   2.2
    9    -836.0220288283426271    -1.82e-01  5.74e-04  1.17e-02  1.44e-02  0.000   2.3
   10    -836.0252390027005731    -3.21e-03  4.31e-04  1.18e-02  7.73e-03  0.000   2.3
   11    -836.0269744495396935    -1.74e-03  3.51e-04  8.77e-03  5.69e-03  0.000   2.2
   12    -836.0281549852443277    -1.18e-03  2.89e-04  7.20e-03  4.68e-03  0.000   1.9
   13    -836.0289940285083503    -8.39e-04  2.53e-04  6.71e-03  4.22e-03  0.000   2.0
   14    -836.0296082894758456    -6.14e-04  2.14e-04  6.15e-03  4.06e-03  0.000   2.2
   15    -836.0300670999852173    -4.59e-04  2.03e-04  5.53e-03  3.52e-03  0.000   2.0
   16    -836.0303990036620689    -3.32e-04  1.58e-04  5.11e-03  3.64e-03  0.000   2.2
                              *** Initializing SOSCF ***
---------------------------------------S-O-S-C-F--------------------------------------
Iteration    Energy (Eh)           Delta-E    RMSDP     MaxDP     MaxGrad    Time(sec)
--------------------------------------------------------------------------------------
   17    -836.0306679544860344    -2.69e-04  1.66e-04  4.37e-03  2.95e-03     2.3
               *** Restarting incremental Fock matrix formation ***
   18    -836.0308652714677464    -1.97e-04  6.50e-04  2.13e-02  3.71e-03     3.4
   19    -836.0310108325229521    -1.46e-04  4.16e-04  1.60e-02  3.44e-03     2.8
   20    -836.0315152556656813    -5.04e-04  3.20e-04  9.84e-03  8.27e-04     2.8
   21    -836.0315197688805711    -4.51e-06  1.19e-04  3.08e-03  1.59e-03     3.3
   22    -836.0316021143160015    -8.23e-05  5.73e-05  1.26e-03  2.56e-04     3.1
   23    -836.0316053991925855    -3.28e-06  3.87e-05  7.93e-04  2.61e-04     2.8
   24    -836.0316117690292685    -6.37e-06  4.08e-05  9.95e-04  1.04e-04     3.0
   25    -836.0316130277035427    -1.26e-06  2.07e-05  4.93e-04  6.32e-05     2.7
   26    -836.0316133489307049    -3.21e-07  7.01e-06  2.22e-04  5.48e-05     2.8
   27    -836.0316134609861365    -1.12e-07  3.52e-06  7.96e-05  1.74e-05     2.2
   28    -836.0316134950630840    -3.41e-08  2.19e-06  5.18e-05  8.24e-06     2.4
   29    -836.0316134949241587     1.39e-10  9.08e-07  3.11e-05  5.47e-06     1.9
                 **** Energy Check signals convergence ****

               *****************************************************
               *                     SUCCESS                       *
               *           SCF CONVERGED AFTER  29 CYCLES          *
               *****************************************************

Recomputing exchange energy using gridx3       ... done (    5.630 sec)
Old exchange energy                            :    -20.877341899 Eh
New exchange energy                            :    -20.877331853 Eh
Exchange energy change after final integration :      0.000010046 Eh
Total energy after final integration           :   -836.031603449 Eh
             **** ENERGY FILE WAS UPDATED (job.en.tmp) ****

----------------
TOTAL SCF ENERGY
----------------

Total Energy       :       -836.03160344929381 Eh          -22749.57650 eV

Components:
Nuclear Repulsion  :       1099.29686971560227 Eh           29913.38859 eV
Electronic Energy  :      -1935.10170332004691 Eh          -52656.79437 eV
One Electron Energy:      -3381.29158348287910 Eh          -92009.62167 eV
Two Electron Energy:       1446.18988016283220 Eh           39352.82730 eV
CPCM Dielectric    :         -0.22677989047962 Eh              -6.17099 eV

Virial components:
Potential Energy   :      -1665.59479369272572 Eh          -45323.13852 eV
Kinetic Energy     :        829.56319024343190 Eh           22573.56202 eV
Virial Ratio       :          2.00779737249909

DFT components:
N(Alpha)           :       58.999975835620 electrons
N(Beta)            :       58.999975835620 electrons
N(Total)           :      117.999951671240 electrons
E(X)               :      -83.128774893602 Eh       
E(C)               :       -4.847396858475 Eh       
E(XC)              :      -87.976171752077 Eh       

CPCM Solvation Model Properties:
Surface-charge          :          1.98175047375001
Corrected charge        :          2.00000000000000
Outlying charge corr.   :          0.00001598048844 Eh               0.00043 eV
Free-energy (cav+disp)  :  This term is not implemented in the current solvation scheme

---------------
SCF CONVERGENCE
---------------

  Last Energy change         ...   -1.3893e-10  Tolerance :   1.0000e-08
  Last MAX-Density change    ...    3.1059e-05  Tolerance :   1.0000e-07
  Last RMS-Density change    ...    9.0798e-07  Tolerance :   5.0000e-09
  Last DIIS Error            ...    2.9456e-03  Tolerance :   5.0000e-07
  Last Orbital Gradient      ...    5.4747e-06  Tolerance :   1.0000e-05
  Last Orbital Rotation      ...    4.0123e-05  Tolerance :   1.0000e-05


----------------
ORBITAL ENERGIES
----------------

  NO   OCC          E(Eh)            E(eV) 
   0   2.0000     -18.940145      -515.3876 
   1   2.0000     -18.930691      -515.1303 
   2   2.0000     -18.882757      -513.8259 
   3   2.0000     -18.878743      -513.7167 
   4   2.0000     -18.752612      -510.2845 
   5   2.0000     -18.749940      -510.2118 
   6   2.0000     -10.069242      -273.9980 
   7   2.0000     -10.052523      -273.5431 
   8   2.0000     -10.029550      -272.9179 
   9   2.0000      -9.966615      -271.2054 
  10   2.0000      -9.965136      -271.1651 
  11   2.0000      -9.961754      -271.0731 
  12   2.0000      -9.957547      -270.9586 
  13   2.0000      -9.951533      -270.7950 
  14   2.0000      -9.949147      -270.7300 
  15   2.0000      -9.946314      -270.6530 
  16   2.0000      -0.844338       -22.9756 
  17   2.0000      -0.817182       -22.2366 
  18   2.0000      -0.810474       -22.0541 
  19   2.0000      -0.728495       -19.8234 
  20   2.0000      -0.686431       -18.6787 
  21   2.0000      -0.607496       -16.5308 
  22   2.0000      -0.594664       -16.1816 
  23   2.0000      -0.537723       -14.6322 
  24   2.0000      -0.513862       -13.9829 
  25   2.0000      -0.473459       -12.8835 
  26   2.0000      -0.410670       -11.1749 
  27   2.0000      -0.378875       -10.3097 
  28   2.0000      -0.363549        -9.8927 
  29   2.0000      -0.315563        -8.5869 
  30   2.0000      -0.295752        -8.0478 
  31   2.0000      -0.278600        -7.5811 
  32   2.0000      -0.271173        -7.3790 
  33   2.0000      -0.254455        -6.9241 
  34   2.0000      -0.246937        -6.7195 
  35   2.0000      -0.237348        -6.4586 
  36   2.0000      -0.223384        -6.0786 
  37   2.0000      -0.202902        -5.5212 
  38   2.0000      -0.198934        -5.4133 
  39   2.0000      -0.197535        -5.3752 
  40   2.0000      -0.183314        -4.9882 
  41   2.0000      -0.178780        -4.8648 
  42   2.0000      -0.162650        -4.4259 
  43   2.0000      -0.149695        -4.0734 
  44   2.0000      -0.140888        -3.8338 
  45   2.0000      -0.105695        -2.8761 
  46   2.0000      -0.097713        -2.6589 
  47   2.0000      -0.093910        -2.5554 
  48   2.0000      -0.080348        -2.1864 
  49   2.0000      -0.061994        -1.6869 
  50   2.0000      -0.054184        -1.4744 
  51   2.0000      -0.051324        -1.3966 
  52   2.0000      -0.045531        -1.2390 
  53   2.0000      -0.033637        -0.9153 
  54   2.0000      -0.026056        -0.7090 
  55   2.0000      -0.017446        -0.4747 
  56   2.0000       0.084913         2.3106 
  57   2.0000       0.086446         2.3523 
  58   2.0000       0.105509         2.8711 
  59   0.0000       0.152212         4.1419 
  60   0.0000       0.216202         5.8832 
  61   0.0000       0.233376         6.3505 
  62   0.0000       0.253478         6.8975 
  63   0.0000       0.276476         7.5233 
  64   0.0000       0.286681         7.8010 
  65   0.0000       0.312042         8.4911 
  66   0.0000       0.324317         8.8251 
  67   0.0000       0.335441         9.1278 
  68   0.0000       0.350226         9.5301 
  69   0.0000       0.369330        10.0500 
*Only the first 10 virtual orbitals were printed.

                    ********************************
                    * MULLIKEN POPULATION ANALYSIS *
                    ********************************

-----------------------
MULLIKEN ATOMIC CHARGES
-----------------------
   0 C :    0.258800
   1 H :   -0.097217
   2 H :   -0.015645
   3 C :   -0.076440
   4 C :    0.035371
   5 O :   -0.422833
   6 O :   -0.464828
   7 O :   -0.426023
   8 C :   -0.139413
   9 H :   -0.122814
  10 C :    0.115065
  11 H :   -0.037350
  12 C :   -0.257281
  13 C :    0.082995
  14 H :    0.027610
  15 C :   -0.134892
  16 H :   -0.056166
  17 C :    0.337856
  18 H :   -0.075660
  19 O :   -0.348284
  20 H :    0.136482
  21 C :    0.218007
  22 O :   -0.384206
  23 O :   -0.153134
Sum of atomic charges:   -2.0000000

--------------------------------
MULLIKEN REDUCED ORBITAL CHARGES
--------------------------------
  0 C s       :     2.902636  s :     2.902636
      pz      :     0.939226  p :     2.805008
      px      :     0.933376
      py      :     0.932406
      dz2     :     0.004082  d :     0.033556
      dxz     :     0.009652
      dyz     :     0.007719
      dx2y2   :     0.004896
      dxy     :     0.007207

  1 H s       :     1.074047  s :     1.074047
      pz      :     0.006828  p :     0.023170
      px      :     0.008917
      py      :     0.007425

  2 H s       :     0.993207  s :     0.993207
      pz      :     0.005404  p :     0.022438
      px      :     0.006413
      py      :     0.010621

  3 C s       :     3.241672  s :     3.241672
      pz      :     0.869096  p :     2.747150
      px      :     0.960820
      py      :     0.917235
      dz2     :     0.016561  d :     0.087618
      dxz     :     0.016270
      dyz     :     0.015990
      dx2y2   :     0.021580
      dxy     :     0.017217

  4 C s       :     3.071012  s :     3.071012
      pz      :     0.871130  p :     2.755833
      px      :     0.921156
      py      :     0.963548
      dz2     :     0.009414  d :     0.137784
      dxz     :     0.027688
      dyz     :     0.010890
      dx2y2   :     0.043579
      dxy     :     0.046213

  5 O s       :     3.722602  s :     3.722602
      pz      :     1.508046  p :     4.686251
      px      :     1.637572
      py      :     1.540633
      dz2     :     0.001866  d :     0.013980
      dxz     :     0.001731
      dyz     :     0.002796
      dx2y2   :     0.002820
      dxy     :     0.004767

  6 O s       :     3.725134  s :     3.725134
      pz      :     1.581901  p :     4.726117
      px      :     1.357873
      py      :     1.786342
      dz2     :     0.001625  d :     0.013577
      dxz     :     0.003918
      dyz     :     0.000095
      dx2y2   :     0.005128
      dxy     :     0.002811

  7 O s       :     3.695054  s :     3.695054
      pz      :     1.476330  p :     4.715683
      px      :     1.654573
      py      :     1.584779
      dz2     :     0.003243  d :     0.015286
      dxz     :     0.002505
      dyz     :     0.004045
      dx2y2   :     0.002294
      dxy     :     0.003200

  8 C s       :     3.181485  s :     3.181485
      pz      :     1.046259  p :     2.924771
      px      :     0.950322
      py      :     0.928189
      dz2     :     0.002968  d :     0.033158
      dxz     :     0.007715
      dyz     :     0.003989
      dx2y2   :     0.006456
      dxy     :     0.012030

  9 H s       :     1.099733  s :     1.099733
      pz      :     0.006975  p :     0.023081
      px      :     0.006637
      py      :     0.009469

 10 C s       :     3.171853  s :     3.171853
      pz      :     0.867182  p :     2.677116
      px      :     0.897676
      py      :     0.912258
      dz2     :     0.002875  d :     0.035966
      dxz     :     0.009146
      dyz     :     0.004164
      dx2y2   :     0.009226
      dxy     :     0.010555

 11 H s       :     1.013852  s :     1.013852
      pz      :     0.006120  p :     0.023498
      px      :     0.007753
      py      :     0.009625

 12 C s       :     3.163499  s :     3.163499
      pz      :     0.973744  p :     3.045694
      px      :     1.120959
      py      :     0.950991
      dz2     :     0.007917  d :     0.048087
      dxz     :     0.009827
      dyz     :     0.011953
      dx2y2   :     0.007461
      dxy     :     0.010928

 13 C s       :     3.190476  s :     3.190476
      pz      :     0.920265  p :     2.691415
      px      :     0.877835
      py      :     0.893315
      dz2     :     0.005275  d :     0.035113
      dxz     :     0.010875
      dyz     :     0.003821
      dx2y2   :     0.006073
      dxy     :     0.009069

 14 H s       :     0.948499  s :     0.948499
      pz      :     0.009816  p :     0.023891
      px      :     0.008767
      py      :     0.005309

 15 C s       :     3.203641  s :     3.203641
      pz      :     0.917350  p :     2.898897
      px      :     0.946848
      py      :     1.034699
      dz2     :     0.003514  d :     0.032354
      dxz     :     0.011764
      dyz     :     0.003735
      dx2y2   :     0.005673
      dxy     :     0.007668

 16 H s       :     1.033408  s :     1.033408
      pz      :     0.010195  p :     0.022759
      px      :     0.005552
      py      :     0.007012

 17 C s       :     2.811463  s :     2.811463
      pz      :     0.968488  p :     2.778304
      px      :     0.879138
      py      :     0.930679
      dz2     :     0.008641  d :     0.072377
      dxz     :     0.017530
      dyz     :     0.015464
      dx2y2   :     0.014297
      dxy     :     0.016446

 18 H s       :     1.053831  s :     1.053831
      pz      :     0.008658  p :     0.021829
      px      :     0.003255
      py      :     0.009916

 19 O s       :     3.726827  s :     3.726827
      pz      :     1.510351  p :     4.609034
      px      :     1.325541
      py      :     1.773142
      dz2     :     0.002076  d :     0.012423
      dxz     :     0.005492
      dyz     :     0.002307
      dx2y2   :     0.001208
      dxy     :     0.001340

 20 H s       :     0.796269  s :     0.796269
      pz      :     0.023164  p :     0.067249
      px      :     0.022836
      py      :     0.021249

 21 C s       :     3.002794  s :     3.002794
      pz      :     0.897806  p :     2.638208
      px      :     0.862717
      py      :     0.877686
      dz2     :     0.041285  d :     0.140990
      dxz     :     0.041848
      dyz     :     0.036497
      dx2y2   :     0.009925
      dxy     :     0.011434

 22 O s       :     3.757591  s :     3.757591
      pz      :     1.549612  p :     4.611842
      px      :     1.565696
      py      :     1.496534
      dz2     :     0.002237  d :     0.014773
      dxz     :     0.003988
      dyz     :     0.003183
      dx2y2   :     0.002689
      dxy     :     0.002677

 23 O s       :     3.778315  s :     3.778315
      pz      :     1.307160  p :     4.357592
      px      :     1.525076
      py      :     1.525356
      dz2     :     0.007411  d :     0.017227
      dxz     :     0.004462
      dyz     :     0.004474
      dx2y2   :     0.000423
      dxy     :     0.000457



                     *******************************
                     * LOEWDIN POPULATION ANALYSIS *
                     *******************************

----------------------
LOEWDIN ATOMIC CHARGES
----------------------
   0 C :   -0.036045
   1 H :   -0.009302
   2 H :    0.022506
   3 C :   -0.011157
   4 C :   -0.092602
   5 O :   -0.387574
   6 O :   -0.424358
   7 O :   -0.335985
   8 C :   -0.115400
   9 H :   -0.025236
  10 C :    0.036162
  11 H :    0.015371
  12 C :   -0.065332
  13 C :    0.030207
  14 H :    0.042435
  15 C :   -0.102499
  16 H :    0.004365
  17 C :    0.043195
  18 H :   -0.022094
  19 O :   -0.170584
  20 H :    0.055224
  21 C :    0.006481
  22 O :   -0.328460
  23 O :   -0.129317

-------------------------------
LOEWDIN REDUCED ORBITAL CHARGES
-------------------------------
  0 C s       :     2.857170  s :     2.857170
      pz      :     1.026879  p :     3.089859
      px      :     1.023424
      py      :     1.039556
      dz2     :     0.009361  d :     0.089016
      dxz     :     0.026022
      dyz     :     0.021775
      dx2y2   :     0.012856
      dxy     :     0.019003

  1 H s       :     0.936338  s :     0.936338
      pz      :     0.023317  p :     0.072964
      px      :     0.027102
      py      :     0.022545

  2 H s       :     0.909449  s :     0.909449
      pz      :     0.017668  p :     0.068045
      px      :     0.018584
      py      :     0.031794

  3 C s       :     2.928443  s :     2.928443
      pz      :     0.888626  p :     2.873736
      px      :     0.992730
      py      :     0.992379
      dz2     :     0.034209  d :     0.208978
      dxz     :     0.040702
      dyz     :     0.039103
      dx2y2   :     0.054253
      dxy     :     0.040711

  4 C s       :     2.878669  s :     2.878669
      pz      :     0.848308  p :     2.888509
      px      :     1.019680
      py      :     1.020521
      dz2     :     0.022292  d :     0.325425
      dxz     :     0.058831
      dyz     :     0.023406
      dx2y2   :     0.106873
      dxy     :     0.114023

  5 O s       :     3.571510  s :     3.571510
      pz      :     1.513590  p :     4.791032
      px      :     1.682345
      py      :     1.595096
      dz2     :     0.003397  d :     0.025032
      dxz     :     0.002674
      dyz     :     0.004331
      dx2y2   :     0.005029
      dxy     :     0.009601

  6 O s       :     3.563879  s :     3.563879
      pz      :     1.574103  p :     4.835676
      px      :     1.474666
      py      :     1.786907
      dz2     :     0.003539  d :     0.024802
      dxz     :     0.005398
      dyz     :     0.000155
      dx2y2   :     0.010854
      dxy     :     0.004855

  7 O s       :     3.532371  s :     3.532371
      pz      :     1.490976  p :     4.775876
      px      :     1.664995
      py      :     1.619906
      dz2     :     0.004351  d :     0.027738
      dxz     :     0.005161
      dyz     :     0.008017
      dx2y2   :     0.004643
      dxy     :     0.005566

  8 C s       :     2.876561  s :     2.876561
      pz      :     1.051665  p :     3.149438
      px      :     1.081476
      py      :     1.016296
      dz2     :     0.006918  d :     0.089401
      dxz     :     0.019633
      dyz     :     0.009363
      dx2y2   :     0.019977
      dxy     :     0.033510

  9 H s       :     0.956260  s :     0.956260
      pz      :     0.022389  p :     0.068975
      px      :     0.018685
      py      :     0.027901

 10 C s       :     2.876781  s :     2.876781
      pz      :     0.931136  p :     2.994204
      px      :     1.067984
      py      :     0.995084
      dz2     :     0.007420  d :     0.092853
      dxz     :     0.021847
      dyz     :     0.009360
      dx2y2   :     0.025997
      dxy     :     0.028230

 11 H s       :     0.912857  s :     0.912857
      pz      :     0.020973  p :     0.071771
      px      :     0.022286
      py      :     0.028512

 12 C s       :     2.884530  s :     2.884530
      pz      :     0.989395  p :     3.065627
      px      :     1.084095
      py      :     0.992138
      dz2     :     0.016566  d :     0.115175
      dxz     :     0.023398
      dyz     :     0.031645
      dx2y2   :     0.015666
      dxy     :     0.027900

 13 C s       :     2.880719  s :     2.880719
      pz      :     0.991355  p :     2.998617
      px      :     1.072339
      py      :     0.934923
      dz2     :     0.013959  d :     0.090457
      dxz     :     0.029436
      dyz     :     0.008727
      dx2y2   :     0.017391
      dxy     :     0.020945

 14 H s       :     0.885161  s :     0.885161
      pz      :     0.029444  p :     0.072405
      px      :     0.025501
      py      :     0.017460

 15 C s       :     2.875157  s :     2.875157
      pz      :     1.018404  p :     3.141116
      px      :     1.074542
      py      :     1.048170
      dz2     :     0.009846  d :     0.086226
      dxz     :     0.032336
      dyz     :     0.008685
      dx2y2   :     0.015959
      dxy     :     0.019400

 16 H s       :     0.926697  s :     0.926697
      pz      :     0.030459  p :     0.068938
      px      :     0.015936
      py      :     0.022543

 17 C s       :     2.836185  s :     2.836185
      pz      :     1.029263  p :     2.956383
      px      :     0.899710
      py      :     1.027410
      dz2     :     0.015947  d :     0.164237
      dxz     :     0.041179
      dyz     :     0.039952
      dx2y2   :     0.029122
      dxy     :     0.038038

 18 H s       :     0.950126  s :     0.950126
      pz      :     0.027543  p :     0.071968
      px      :     0.012825
      py      :     0.031600

 19 O s       :     3.454873  s :     3.454873
      pz      :     1.577915  p :     4.691749
      px      :     1.357708
      py      :     1.756125
      dz2     :     0.002832  d :     0.023962
      dxz     :     0.011454
      dyz     :     0.003600
      dx2y2   :     0.002755
      dxy     :     0.003321

 20 H s       :     0.765079  s :     0.765079
      pz      :     0.068107  p :     0.179697
      px      :     0.056247
      py      :     0.055343

 21 C s       :     2.843444  s :     2.843444
      pz      :     1.022325  p :     2.834618
      px      :     0.924084
      py      :     0.888210
      dz2     :     0.098107  d :     0.315457
      dxz     :     0.093420
      dyz     :     0.075678
      dx2y2   :     0.021518
      dxy     :     0.026735

 22 O s       :     3.575085  s :     3.575085
      pz      :     1.606946  p :     4.727342
      px      :     1.594402
      py      :     1.525993
      dz2     :     0.003785  d :     0.026032
      dxz     :     0.008001
      dyz     :     0.006192
      dx2y2   :     0.003303
      dxy     :     0.004751

 23 O s       :     3.588442  s :     3.588442
      pz      :     1.438697  p :     4.511321
      px      :     1.542098
      py      :     1.530525
      dz2     :     0.015603  d :     0.029555
      dxz     :     0.007202
      dyz     :     0.005785
      dx2y2   :     0.000497
      dxy     :     0.000468



                      *****************************
                      * MAYER POPULATION ANALYSIS *
                      *****************************

  NA   - Mulliken gross atomic population
  ZA   - Total nuclear charge
  QA   - Mulliken gross atomic charge
  VA   - Mayer's total valence
  BVA  - Mayer's bonded valence
  FA   - Mayer's free valence

  ATOM       NA         ZA         QA         VA         BVA        FA
  0 C      5.7412     6.0000     0.2588     3.7419     3.7419    -0.0000
  1 H      1.0972     1.0000    -0.0972     1.0885     1.0885    -0.0000
  2 H      1.0156     1.0000    -0.0156     1.0208     1.0208    -0.0000
  3 C      6.0764     6.0000    -0.0764     4.0010     4.0010     0.0000
  4 C      5.9646     6.0000     0.0354     4.4982     4.4982    -0.0000
  5 O      8.4228     8.0000    -0.4228     2.0589     2.0589    -0.0000
  6 O      8.4648     8.0000    -0.4648     1.9981     1.9981    -0.0000
  7 O      8.4260     8.0000    -0.4260     2.0529     2.0529     0.0000
  8 C      6.1394     6.0000    -0.1394     3.9006     3.9006     0.0000
  9 H      1.1228     1.0000    -0.1228     0.9729     0.9729     0.0000
 10 C      5.8849     6.0000     0.1151     3.8775     3.8775     0.0000
 11 H      1.0374     1.0000    -0.0374     1.0476     1.0476     0.0000
 12 C      6.2573     6.0000    -0.2573     3.7623     3.7623     0.0000
 13 C      5.9170     6.0000     0.0830     3.8916     3.8916    -0.0000
 14 H      0.9724     1.0000     0.0276     1.0317     1.0317    -0.0000
 15 C      6.1349     6.0000    -0.1349     3.8927     3.8927    -0.0000
 16 H      1.0562     1.0000    -0.0562     0.9892     0.9892    -0.0000
 17 C      5.6621     6.0000     0.3379     3.7442     3.7442     0.0000
 18 H      1.0757     1.0000    -0.0757     1.0648     1.0648     0.0000
 19 O      8.3483     8.0000    -0.3483     2.0200     2.0200    -0.0000
 20 H      0.8635     1.0000     0.1365     1.0320     1.0320    -0.0000
 21 C      5.7820     6.0000     0.2180     4.3682     4.3682     0.0000
 22 O      8.3842     8.0000    -0.3842     2.1175     2.1175     0.0000
 23 O      8.1531     8.0000    -0.1531     2.3946     2.3946     0.0000

  Mayer bond orders larger than 0.100000
B(  0-C ,  1-H ) :   0.8305 B(  0-C ,  2-H ) :   0.9191 B(  0-C ,  3-C ) :   1.0316 
B(  0-C , 12-C ) :   0.9653 B(  1-H , 22-O ) :   0.1298 B(  3-C ,  4-C ) :   0.8368 
B(  3-C ,  7-O ) :   1.8461 B(  3-C , 23-O ) :   0.1069 B(  4-C ,  5-O ) :   1.8626 
B(  4-C ,  6-O ) :   1.7608 B(  5-O ,  6-O ) :   0.1182 B(  6-O , 18-H ) :   0.1040 
B(  8-C ,  9-H ) :   0.9474 B(  8-C , 10-C ) :   1.8183 B(  8-C , 17-C ) :   0.9691 
B( 10-C , 11-H ) :   0.9595 B( 10-C , 12-C ) :   1.0185 B( 12-C , 13-C ) :   0.9632 
B( 12-C , 21-C ) :   0.7144 B( 13-C , 14-H ) :   0.9633 B( 13-C , 15-C ) :   1.8280 
B( 15-C , 16-H ) :   0.9682 B( 15-C , 17-C ) :   0.9810 B( 17-C , 18-H ) :   0.8432 
B( 17-C , 19-O ) :   0.9704 B( 19-O , 20-H ) :   0.9840 B( 21-C , 22-O ) :   1.7128 
B( 21-C , 23-O ) :   1.9194 B( 22-O , 23-O ) :   0.1302 

-------
TIMINGS
-------

Total SCF time: 0 days 0 hours 1 min 19 sec 

Total time                  ....      79.955 sec
Sum of individual times     ....      79.005 sec  ( 98.8%)

SCF preparation             ....       1.846 sec  (  2.3%)
Fock matrix formation       ....      73.402 sec  ( 91.8%)
  Startup                   ....       0.380 sec  (  0.5% of F)
  Split-RI-J                ....       7.994 sec  ( 10.9% of F)
  Chain of spheres X        ....      42.334 sec  ( 57.7% of F)
  XC integration            ....      12.382 sec  ( 16.9% of F)
    XC Preparation          ....       0.000 sec  (  0.0% of XC)
    Basis function eval.    ....       2.899 sec  ( 23.4% of XC)
    Density eval.           ....       1.840 sec  ( 14.9% of XC)
    XC-Functional eval.     ....       0.532 sec  (  4.3% of XC)
    XC-Potential eval.      ....       1.983 sec  ( 16.0% of XC)
  CPCM terms                ....       8.695 sec  ( 11.8% of F)
Diagonalization             ....       0.000 sec  (  0.0%)
Density matrix formation    ....       0.873 sec  (  1.1%)
Total Energy calculation    ....       0.409 sec  (  0.5%)
Population analysis         ....       0.067 sec  (  0.1%)
Orbital Transformation      ....       0.101 sec  (  0.1%)
Orbital Orthonormalization  ....       0.000 sec  (  0.0%)
DIIS solution               ....       1.633 sec  (  2.0%)
SOSCF solution              ....       0.673 sec  (  0.8%)
Finished LeanSCF after  80.1 sec

Maximum memory used throughout the entire LEANSCF-calculation: 31.4 MB


-------------------------------------------------------------------------------
                          DFT DISPERSION CORRECTION                            
                                                                               
                              DFTD3 V3.1  Rev 1                                
                          USING Becke-Johnson damping                          
-------------------------------------------------------------------------------
The B3LYP functional is recognized
Active option DFTDOPT                   ...         4   

molecular C6(AA) [au] = 6861.108343 


            DFT-D V3
 parameters
 s6 scaling factor         :     1.0000 
 a1 scaling factor         :     0.3981 
 s8 scaling factor         :     1.9889 
 a2 scaling factor         :     4.4211 
 ad hoc parameters k1-k3   :    16.0000     1.3333    -4.0000 

 Edisp/kcal,au: -34.113852350938  -0.054363878351 
 E6   /kcal   : -15.962716921 
 E8   /kcal   : -18.151135430 
 % E8         :  53.207521810 

-------------------------   ----------------
Dispersion correction           -0.054363878
-------------------------   ----------------


-------------------------   --------------------
FINAL SINGLE POINT ENERGY      -836.085967327645
-------------------------   --------------------



           ************************************************************
           *        Program running with 8 parallel MPI-processes     *
           *              working on a common directory               *
           ************************************************************
------------------------------------------------------------------------------
                         ORCA SCF GRADIENT CALCULATION
------------------------------------------------------------------------------

Nuc. rep. gradient        (SHARK) ... done (  0.0 sec)
HCore & Overlap gradient  (SHARK) ... done (  0.2 sec)
Split-RIJ-J gradient      (SHARK) ... done (  1.2 sec)
COSX-gradient                     ... done ( 14.9 sec)
XC gradient                       ... done (  2.5 sec)
CPCM gradient                     ... done (  1.2 sec)
Point charge gradient             ... done (  0.2 sec)
Dispersion correction             ... done (  0.0 sec)

-------------------
DISPERSION GRADIENT
-------------------

   1   C   :    0.000685992    0.000324674    0.000512686
   2   H   :    0.000363653    0.000072004    0.000333305
   3   H   :    0.000384700    0.000345991    0.000115466
   4   C   :    0.000169815    0.000754447    0.001023668
   5   C   :   -0.000197764    0.001047641    0.000685726
   6   O   :   -0.000012802    0.000719017    0.000144148
   7   O   :   -0.000371224    0.000615533    0.000364959
   8   O   :   -0.000089619    0.000110991    0.001046811
   9   C   :   -0.000680377   -0.000893734    0.000032190
  10   H   :   -0.000208296   -0.000387770    0.000138420
  11   C   :   -0.000003425   -0.000944803    0.000211462
  12   H   :    0.000041622   -0.000529351    0.000193218
  13   C   :    0.000565300   -0.000262262   -0.000220676
  14   C   :    0.000146588    0.000157778   -0.001101801
  15   H   :    0.000104027    0.000210521   -0.000484502
  16   C   :   -0.000591585    0.000096796   -0.001088641
  17   H   :   -0.000146802    0.000171950   -0.000381864
  18   C   :   -0.000858162   -0.000347374   -0.000448626
  19   H   :   -0.000544205    0.000024380   -0.000035758
  20   O   :   -0.000553016   -0.000126142   -0.000188508
  21   H   :   -0.000343771   -0.000099542   -0.000022941
  22   C   :    0.000884290   -0.000422456   -0.000326619
  23   O   :    0.000673042   -0.000402540    0.000001587
  24   O   :    0.000582021   -0.000235750   -0.000503711

Difference to translation invariance:
           :    0.0000000000   -0.0000000000   -0.0000000000

Difference to rotation invariance:
           :   -0.0000000000   -0.0000000000   -0.0000000000

Norm of the Dispersion gradient    ...    0.0041903040
RMS gradient                       ...    0.0004938321
MAX gradient                       ...    0.0011018007

------------------
CARTESIAN GRADIENT
------------------

   1   C   :    0.009239200   -0.007250411   -0.006790510
   2   H   :   -0.004987668    0.006732212    0.002905622
   3   H   :    0.000310841    0.001721207    0.001595573
   4   C   :   -0.027574563   -0.026363041    0.035007596
   5   C   :   -0.013944225   -0.001421189    0.010516094
   6   O   :   -0.000402601    0.000216257   -0.004136586
   7   O   :    0.019651814   -0.004472592   -0.009469768
   8   O   :    0.022109104    0.031854529   -0.053802095
   9   C   :    0.000298447   -0.002486219    0.000786882
  10   H   :    0.004864287    0.006040048    0.000010360
  11   C   :   -0.004392838   -0.005949280   -0.001391815
  12   H   :   -0.004245677    0.002108278    0.002290120
  13   C   :    0.020219370   -0.003710799   -0.003125807
  14   C   :   -0.003958941    0.000045794    0.001022448
  15   H   :   -0.000759481    0.001464925   -0.001748119
  16   C   :    0.001107893    0.000613742   -0.001628596
  17   H   :    0.001223578    0.000596719    0.001105960
  18   C   :   -0.006684010   -0.001106803   -0.001844390
  19   H   :    0.003372794   -0.000865020   -0.003476720
  20   O   :    0.015397815    0.001827879    0.008021772
  21   H   :   -0.004578125   -0.000273861    0.000663021
  22   C   :   -0.065999710    0.036070164    0.033503992
  23   O   :    0.024697067   -0.021674263   -0.024486454
  24   O   :    0.034860574   -0.023786133   -0.025428357

Difference to translation invariance:
           :    0.0198249442   -0.0100678608   -0.0398997763

Difference to rotation invariance:
           :   -1.4975605669    6.5685148036   -2.4399519523

Norm of the Cartesian gradient     ...    0.1416596136
RMS gradient                       ...    0.0166947456
MAX gradient                       ...    0.0659997097

-------
TIMINGS
-------

Total SCF gradient time     ....       20.228 sec

Densities                   ....       0.001 sec  (  0.0%)
One electron gradient       ....       0.186 sec  (  0.9%)
RI-J Coulomb gradient       ....       1.150 sec  (  5.7%)
COSX gradient               ....      14.878 sec  ( 73.6%)
XC gradient                 ....       2.518 sec  ( 12.4%)
CPCM gradient               ....       1.232 sec  (  6.1%)
   A-Matrix (El+Nuc)        ....       0.169 sec  (  0.8%)
   Potential                ....       1.063 sec  (  5.3%)

Maximum memory used throughout the entire SCFGRAD-calculation: 36.0 MB


           ************************************************************
           *        Program running with 8 parallel MPI-processes     *
           *              working on a common directory               *
           ************************************************************

------------------------------------------------------------------------------
                         ORCA PROPERTY INTEGRAL CALCULATIONS
------------------------------------------------------------------------------

GBWName                                   ... job.gbw
Number of atoms                           ...     24
Number of basis functions                 ...    264
Max core memory                           ...   3000 MB

Dipole integrals                          ...  NO
Quadrupole integrals                      ...  NO
Linear momentum integrals                 ...  NO
Angular momentum integrals                ...  NO
Higher moments length integrals           ...  NO
Higher moments velocity integrals         ...  NO
Kinetic energy integrals                  ...  NO
GIAO right hand sides                     ...  NO
GIAO dipole derivative integrals          ...  NO
SOC integrals                             ...  NO
EPR diamagnetic integrals (GIAO)          ...  NO
EPR gauge integrals                       ...  NO
Field gradient integrals                  ...  NO (   0 nuclei)
Spin-dipole/Fermi contact integrals       ...  NO (   0 nuclei)
Contact density integrals                 ...  NO (   0 nuclei)
Nucleus-orbit integrals                   ...  NO (   0 nuclei)
Geometric perturbations                   ... YES (  24 nuclei)

Choice of electric origin   ... Center of mass
Position of electric origin ... (111.0755, 63.4550,105.1018) 
Choice of magnetic origin   ... GIAO
Position of magnetic origin ... (  0.0000,  0.0000,  0.0000) 

Calculating integrals                     ... Geometrical perturbation right hand sides

-----------------------
GEOMETRIC PERTURBATIONS (24 nuclei)
-----------------------

MaxCore                            ...   3000 MB
Number of batches                  ...      1

BATCH   0: Atoms    0 -   23 ( 72 perturbations)
   => H(core) and overlap derivative integrals     ... done (     0.3 sec)
   => Making and storing internal U-coefficients   ... done (     0.2 sec)
   => RI-J derivative integrals                    ... done (     5.5 sec)
   => RI-J response operators                      ... done (     1.2 sec)
   => Chain of spheres derivative integrals        ... done (    17.1 sec)
   => Chain of spheres response operator           ... done (    17.1 sec)
   => XC derivative integrals                      ... done (    33.3 sec)
   => XC response operators                        ... done (     9.9 sec)
   => CPCM derivative integrals                    ... done (     7.5 sec)
   => CPCM response operators                      ... done (    12.8 sec)
   => Completing and storing right hand sides      ... done (     0.1 sec)
   => Total time for right hand sides = 100.6 sec

  geometrical perturbations done (100.7 sec)

Property integrals calculated in 100.7 sec

Maximum memory used throughout the entire PROPINT-calculation: 352.4 MB


           ************************************************************
           *        Program running with 8 parallel MPI-processes     *
           *              working on a common directory               *
           ************************************************************
------------------------------------------------------------------------------
                            ORCA SCF RESPONSE CALCULATION
------------------------------------------------------------------------------

GBWName                                 ... job.gbw
Number of atoms                         ...     24
Number of basis functions               ...    264
Max core memory                         ...   3000 MB

Electric field perturbation             ...  NO
[...]
               *** Restarting incremental Fock matrix formation ***
    9    -928.6754309247097581    -1.10e-05  5.03e-05  2.00e-03  5.30e-04     2.3
   10    -928.6754263751225835     4.55e-06  6.03e-05  1.42e-03  1.57e-03     1.6
   11    -928.6754512473579553    -2.49e-05  7.59e-05  1.80e-03  3.28e-04     1.6
   12    -928.6754582376908047    -6.99e-06  4.77e-05  1.14e-03  2.26e-04     1.6
   13    -928.6754585463621652    -3.09e-07  8.17e-06  4.35e-04  3.38e-04     1.6
   14    -928.6754598621645300    -1.32e-06  7.80e-06  1.77e-04  4.44e-05     1.5
   15    -928.6754599464326247    -8.43e-08  3.45e-06  1.57e-04  1.80e-05     1.5
   16    -928.6754599586253107    -1.22e-08  2.99e-06  9.39e-05  1.43e-05     1.5
   17    -928.6754599734605335    -1.48e-08  1.46e-06  6.33e-05  9.63e-06     1.4
   18    -928.6754599887000268    -1.52e-08  1.10e-06  4.67e-05  5.89e-06     1.2
   19    -928.6754599792099043     9.49e-09  9.50e-07  3.78e-05  3.14e-06     1.2
                 **** Energy Check signals convergence ****

               *****************************************************
               *                     SUCCESS                       *
               *           SCF CONVERGED AFTER  19 CYCLES          *
               *****************************************************

Recomputing exchange energy using gridx3       ... done (    2.787 sec)
Old exchange energy                            :    -20.662458844 Eh
New exchange energy                            :    -20.662409377 Eh
Exchange energy change after final integration :      0.000049468 Eh
Total energy after final integration           :   -928.675410512 Eh
             **** ENERGY FILE WAS UPDATED (job.en.tmp) ****

----------------
TOTAL SCF ENERGY
----------------

Total Energy       :       -928.67541051170019 Eh          -25270.54265 eV

Components:
Nuclear Repulsion  :        829.81357976228207 Eh           22580.37547 eV
Electronic Energy  :      -1757.58672879578762 Eh          -47826.36634 eV
One Electron Energy:      -3040.34457078869536 Eh          -82731.98178 eV
Two Electron Energy:       1282.75784199290774 Eh           34905.61545 eV
CPCM Dielectric    :         -0.90231094570430 Eh             -24.55313 eV

Virial components:
Potential Energy   :      -1751.74674640299691 Eh          -47667.45234 eV
Kinetic Energy     :        823.07133589129671 Eh           22396.90969 eV
Virial Ratio       :          2.12830488684926

DFT components:
N(Alpha)           :       58.999925065114 electrons
N(Beta)            :       58.999925065114 electrons
N(Total)           :      117.999850130228 electrons
E(X)               :      -82.409975799230 Eh       
E(C)               :       -4.785102024086 Eh       
E(XC)              :      -87.195077823316 Eh       

CPCM Solvation Model Properties:
Surface-charge          :          1.97877011057136
Corrected charge        :          2.00000000000000
Outlying charge corr.   :          0.00001886528726 Eh               0.00051 eV
Free-energy (cav+disp)  :  This term is not implemented in the current solvation scheme

---------------
SCF CONVERGENCE
---------------

  Last Energy change         ...   -9.4901e-09  Tolerance :   1.0000e-08
  Last MAX-Density change    ...    3.7811e-05  Tolerance :   1.0000e-07
  Last RMS-Density change    ...    9.5037e-07  Tolerance :   5.0000e-09
  Last DIIS Error            ...    1.8075e-03  Tolerance :   5.0000e-07
  Last Orbital Gradient      ...    3.1425e-06  Tolerance :   1.0000e-05
  Last Orbital Rotation      ...    7.8831e-05  Tolerance :   1.0000e-05


Total SCF time: 0 days 0 hours 0 min 33 sec 
Finished LeanSCF after  35.4 sec

Maximum memory used throughout the entire LEANSCF-calculation: 38.1 MB


-------------------------------------------------------------------------------
                          DFT DISPERSION CORRECTION                            
                                                                               
                              DFTD3 V3.1  Rev 1                                
                          USING Becke-Johnson damping                          
-------------------------------------------------------------------------------
-------------------------   ----------------
Dispersion correction           -0.043218720
-------------------------   ----------------


-------------------------   --------------------
FINAL SINGLE POINT ENERGY      -928.718629231867
-------------------------   --------------------



           ************************************************************
           *        Program running with 8 parallel MPI-processes     *
           *              working on a common directory               *
           ************************************************************
------------------------------------------------------------------------------
                         ORCA SCF GRADIENT CALCULATION
------------------------------------------------------------------------------

Nuc. rep. gradient        (SHARK) ... done (  0.0 sec)
HCore & Overlap gradient  (SHARK) ... done (  0.1 sec)
Split-RIJ-J gradient      (SHARK) ... done (  0.5 sec)
COSX-gradient                     ... done (  7.5 sec)
XC gradient                       ... done (  1.2 sec)
CPCM gradient                     ... done (  0.7 sec)
Point charge gradient             ... done (  0.1 sec)
Dispersion correction             ... done (  0.0 sec)

-------------------
DISPERSION GRADIENT
-------------------

   1   C   :    0.000587536   -0.000050432    0.000353066
   2   H   :    0.000357210   -0.000116458    0.000151009
   3   H   :    0.000374534    0.000107786    0.000100242
   4   C   :    0.000150800    0.000090511    0.000823733
   5   C   :   -0.000342754    0.000565130    0.000800383
   6   O   :   -0.000204539    0.000718759    0.000413144
   7   O   :   -0.000306342    0.000228542    0.000296890
   8   O   :    0.000005634   -0.000246367    0.000618311
   9   C   :   -0.000314981   -0.000572504   -0.000232011
  10   H   :   -0.000105905   -0.000368559   -0.000060140
  11   C   :    0.000061212   -0.000783667   -0.000199384
  12   H   :    0.000082986   -0.000431441    0.000003236
  13   C   :    0.000502682   -0.000232176   -0.000081064
  14   C   :    0.000348577    0.000375434   -0.000691591
  15   H   :    0.000239477    0.000305733   -0.000296151
  16   C   :   -0.000075270    0.000476870   -0.000795394
  17   H   :    0.000044779    0.000199159   -0.000165409
  18   C   :   -0.000463623   -0.000030109   -0.000339795
  19   H   :   -0.000420112    0.000025634   -0.000129194
  20   O   :   -0.000404567   -0.000052273   -0.000322789
  21   H   :   -0.000250700   -0.000124161   -0.000161820
  22   C   :    0.000028442   -0.000045343   -0.000040841
  23   O   :    0.000076064   -0.000025227    0.000030124
  24   O   :    0.000028860   -0.000014840   -0.000074555

Difference to translation invariance:
           :    0.0000000000   -0.0000000000   -0.0000000000

Difference to rotation invariance:
           :    0.0000000000    0.0000000000   -0.0000000000

Norm of the Dispersion gradient    ...    0.0029359258
RMS gradient                       ...    0.0003460022
MAX gradient                       ...    0.0008237327

------------------
CARTESIAN GRADIENT
------------------

   1   C   :    0.070172849   -0.093549253    0.024135305
   2   H   :   -0.121288366    0.130896978   -0.044314480
   3   H   :   -0.008617993   -0.013321986    0.014290800
   4   C   :    0.079298170   -0.038406318   -0.096829719
   5   C   :   -0.026425035    0.061914455   -0.074624947
   6   O   :    0.011526187   -0.039861967    0.028522656
   7   O   :   -0.015494165    0.009104356    0.025173783
   8   O   :   -0.132675880    0.014235016    0.106377173
   9   C   :    0.034466390   -0.054964685    0.025176936
  10   H   :    0.027137588    0.093574704    0.040502306
  11   C   :   -0.060854244    0.016372792   -0.055046805
  12   H   :    0.015537699    0.019164437    0.000792395
  13   C   :    0.019140111   -0.100061113    0.104623086
  14   C   :   -0.056957898    0.041279631   -0.095068258
  15   H   :   -0.028594045   -0.017959241   -0.006524012
  16   C   :    0.139862831    0.028540714    0.129193505
  17   H   :   -0.017399086    0.015644274   -0.052263715
  18   C   :   -0.022213824   -0.068614178   -0.013934217
  19   H   :    0.002671709    0.009187027    0.028292880
  20   O   :   -0.059553177   -0.149650528    0.000015887
  21   H   :    0.039876930    0.165727897   -0.038718500
  22   C   : 1139.460717326 1418.111233591 -277.344669215
  23   O   :    0.047714118    0.056385243    0.100114186
  24   O   :   -0.071452701    0.165509844   -0.056766461

Difference to translation invariance:
           : 1139.3265954924 1418.3623816894 -277.2515494296

Difference to rotation invariance:
           : -158746.3552560652 148123.9983912618 105433.2208399040

Norm of the Cartesian gradient     ... 1840.1985179584
RMS gradient                       ...  216.8694751296
MAX gradient                       ... 1418.1112335913

-------
TIMINGS
-------

Total SCF gradient time     ....       10.247 sec

Densities                   ....       0.001 sec  (  0.0%)
One electron gradient       ....       0.067 sec  (  0.7%)
RI-J Coulomb gradient       ....       0.491 sec  (  4.8%)
COSX gradient               ....       7.547 sec  ( 73.7%)
XC gradient                 ....       1.238 sec  ( 12.1%)
CPCM gradient               ....       0.712 sec  (  6.9%)
   A-Matrix (El+Nuc)        ....       0.182 sec  (  1.8%)
   Potential                ....       0.530 sec  (  5.2%)

Maximum memory used throughout the entire SCFGRAD-calculation: 33.9 MB
------------------------------------------------------------------------------
                         ORCA GEOMETRY RELAXATION STEP
------------------------------------------------------------------------------

Reading the OPT-File                    .... done
Number of atoms                         ....  24
Number of degrees of freedom            ....  72
Current Energy                          ....  -928.718629232 Eh
Current gradient norm                   ....  1840.198517958 Eh/bohr
Maximum allowed component of the step   ....  0.300
Current trust radius                    ....  0.100
Updating the approximate Hessian        .... done
Forming augmented Hessian.
Diagonalizing augmented Hessian.
Reducing step size.
The input lambda is                     ....  -892.283532
   iter:   5  x=-6613.383831  g=    0.000014 f(x)=     0.027144
   iter:  10  x=-9927.424943  g=    0.000002 f(x)=     0.000000
   iter:  15  x=-9927.424943  g=    0.000002 f(x)=    -0.000000
   iter:  20  x=-9927.424943  g=    0.000002 f(x)=     0.000000
   iter:  25  x=-9927.424943  g=    0.000002 f(x)=    -0.000000
   iter:  30  x=-9927.424943  g=    0.000002 f(x)=     0.000000
   iter:  35  x=-9927.424943  g=    0.000002 f(x)=    -0.000000
   iter:  40  x=-9927.424943  g=    0.000002 f(x)=     0.000000
   iter:  45  x=-9927.424943  g=    0.000002 f(x)=    -0.000000
   iter:  50  x=-9927.424943  g=    0.000002 f(x)=     0.000000
   iter:  55  x=-9927.424943  g=    0.000002 f(x)=    -0.000000
   iter:  60  x=-9927.424943  g=    0.000002 f(x)=     0.000000
   iter:  65  x=-9927.424943  g=    0.000002 f(x)=    -0.000000
   iter:  70  x=-9927.424943  g=    0.000002 f(x)=     0.000000
   iter:  75  x=-9927.424943  g=    0.000002 f(x)=    -0.000000
   iter:  80  x=-9927.424943  g=    0.000002 f(x)=     0.000000
   iter:  85  x=-9927.424943  g=    0.000002 f(x)=    -0.000000
   iter:  90  x=-9927.424943  g=    0.000002 f(x)=     0.000000
   iter:  95  x=-9927.424943  g=    0.000002 f(x)=    -0.000000
   iter: 100  x=-9927.424943  g=    0.000002 f(x)=     0.000000
The lambda equations have not converged!
Evaluating lambda by bisection method.
   iter   5 best    13.691844 lambda    -9.844728
   iter  10 best    13.569924 lambda    -9.996095
   iter  15 best    13.566166 lambda   -10.000825
   iter  20 best    13.566049 lambda   -10.000973
   iter  25 best    13.566045 lambda   -10.000978
   iter  30 best    13.566045 lambda   -10.000978
   iter  35 best    13.566045 lambda   -10.000978
The output lambda is                    ....   -10.000978
The step size is now                    ....  0.100
Storing new coordinates                 .... done
The predicted energy change is          .... -99.304436527
Previously predicted energy change      .... -90.763232592
Actually observed energy change         .... -15.728520005
Ratio of predicted to observed change   .... 0.173291757
New trust radius                        .... 0.100000000

                                .--------------------.
          ----------------------|Geometry convergence|-------------------------
          Item                value                   Tolerance       Converged
          ---------------------------------------------------------------------
          Energy change     -15.7285200045            0.0000050000      NO
          RMS gradient      216.8694751296            0.0001000000      NO
          MAX gradient     1418.1112335913            0.0003000000      NO
          RMS step            0.0117851130            0.0020000000      NO
          MAX step            0.0775176259            0.0040000000      NO
          -------------------------------------------------------------------------

The optimization has not yet converged - more geometry cycles are needed

Geometry step timings:
Preparation and reading OPT file:      0.002 s (16.793 %)
Hessian update/contruction      :      0.005 s (34.491 %)
Making the step                 :      0.003 s (20.716 %)
Storing new data                :      0.001 s ( 7.097 %)
Checking convergence            :      0.003 s (20.903 %)
Total time                      :      0.013 s

Time for energy+gradient        :     53.412 s
Time for complete geometry iter :     56.547 s




    ----------------------------------------------------------------------------
                                  WARNING !!!
       The optimization did not converge but reached the maximum number of
       optimization cycles.
       Please check your results very carefully.
    ----------------------------------------------------------------------------



--------------------------------
SUGGESTED CITATIONS FOR THIS RUN
--------------------------------

Below you find a list of papers that are relevant to this ORCA run
We neither can nor want to force you to cite these papers, but we appreciate if you do
You receive ORCA, which is the product of decades of hard work by many enthusiastic individuals, for free
The only thing we kindly ask in return is that you cite our papers,
We deeply appreciate it, if you show your appreciation for ORCA by not just citing the generic ORCA reference.

Please note that relegating all ORCA citations to the supporting information does *not* help us.
SI sections are not indexed - citations you put there will not count into any citation statistics
But we need these citations in order to attract the funding resources that allow us to do what we are doing

Therefore, if you are a happy ORCA user, please consider citing a few of the papers listed below in the main body of your paper

In addition to the list printed below, the program has created the file job.bibtex that contains the list in bibtex format
You can import this file easily into all common literature databanks and citation aid programs


List of essential papers. We consider these as the minimum necessary citations

  1. Neese,F.
     Software update: the ORCA program system, version 5.0
     WIRES Comput. Molec. Sci., 2022 12(1)e1606
     doi.org/10.1002/wcms.1606

List of papers to cite with high priority. The work reported in these papers was absolutely
necessary for this run to complete.
Our perspective: the developers of density functionals and basis sets usually get cited in chemistry papers
Good! But without the algorithms to do something with them, the functionals or basis sets would not do anything.
Hence, in our opinion, the algorithm design and method developments papers are equally worthy of getting cited

  1. Neese,F.
     An improvement of the resolution of the identity approximation for the formation of the Coulomb matrix
     J. Comp. Chem., 2003 24(14)1740-1747
     doi.org/10.1002/jcc.10318
  2. Neese,F.; Wennmohs,F.; Hansen,A.; Becker,U.
     Efficient, approximate and parallel Hartree-Fock and hybrid DFT calculations. A 'chain-of-spheres' algorithm for the Hartree-Fock exchange
     Chem. Phys., 2009 356(1-3)98-109
     doi.org/10.1016/j.chemphys.2008.10.036
  3. Bykov,D.; Petrenko,T.; Izsak,R.; Kossmann,S.; Becker,U.; Valeev,E.; Neese,F.
     Efficient implementation of the analytic second derivatives of Hartree-Fock and hybrid DFT energies: a detailed analysis of different approximations
     Molec. Phys., 2015 113 1961-1977
     doi.org/10.1080/00268976.2015.1025114
  4. Garcia-Rates,M.; Neese,F.
     Effect of the Solute Cavity on the Solvation Energy and its Derivatives within the Framework of the Gaussian Charge Scheme
     J. Comput. Chem., 2020 41 922-939
     doi.org/10.1002/jcc.26139
  5. Helmich-Paris,B.; de Souza,B.; Neese,F.; Izsák,R.
     An improved chain of spheres for exchange algorithm
     J. Chem. Phys., 2021 155 104109
     doi.org/doi: 10.1063/5.0058766.
  6. Neese,F.
     The SHARK Integral Generation and Digestion System
     J. Comp. Chem., 2022  1-16
     doi.org/10.1002/jcc.26942
  7. Grimme,S.; Antony,J.; Ehrlich,S.; Krieg,H.
     A consistent and accurate ab initio parametrization of density functional dispersion correction (DFT-D) for the 94 elements H-Pu
     J. Chem. Phys., 2010 132 154104
     doi.org/10.1063/1.3382344
  8. Grimme,S.; Ehrlich,S.; Goerigk,L.
     Effect of the damping function in dispersion corrected density functional theory
     J. Comput. Chem., 2011 32(7)1456-1465
     doi.org/10.1002/jcc.21759

List of suggested additional citations. These are papers that are important in the 'surrounding' of 
of this run, or papers that preceded the highly important papers. If you like your results we are grateful for a citation.

  1. Izsak,R.; Neese,F.
     An overlap fitted chain of spheres exchange method
     J. Chem. Phys., 2011 135 144105
     doi.org/10.1063/1.3646921
  2. Izsak,R.; Hansen,A.; Neese,F.
     The resolution of identity and chain of spheres approximations for the LPNO-CCSD singles Fock term
     Molec. Phys., 2012 110 2413-2417
     doi.org/10.1080/00268976.2012.687466
  3. Neese,F.
     The ORCA program system
     WIRES Comput. Molec. Sci., 2012 2(1)73-78
     doi.org/10.1002/wcms.81
  4. Izsak,R.; Neese,F.; Klopper,W.
     Robust fitting techniques in the chain of spheres approximation to the Fock exchange: The role of the complementary space
     J. Chem. Phys., 2013 139 
     doi.org/10.1063/1.4819264
  5. Neese,F.
     Software update: the ORCA program system, version 4.0
     WIRES Comput. Molec. Sci., 2018 8(1)1-6
     doi.org/10.1002/wcms.1327
  6. Neese,F.; Wennmohs,F.; Becker,U.; Riplinger,C.
     The ORCA quantum chemistry program package
     J. Chem. Phys., 2020 152 Art. No. L224108
     doi.org/10.1063/5.0004608

List of optional additional citations

  1. Neese,F.
     Approximate second-order SCF convergence for spin unrestricted wavefunctions
     Chem. Phys. Lett., 2000 325(1-3)93-98
     doi.org/10.1016/s0009-2614(00)00662-x

Timings for individual modules:

Sum of individual times          ...     3978.407 sec (=  66.307 min)
Startup calculation              ...      274.991 sec (=   4.583 min)   6.9 %
SCF iterations                   ...     2702.280 sec (=  45.038 min)  67.9 %
SCF Gradient evaluation          ...      999.693 sec (=  16.662 min)  25.1 %
Geometry relaxation              ...        1.443 sec (=   0.024 min)   0.0 %
                             ****ORCA TERMINATED NORMALLY****
TOTAL RUN TIME: 0 days 2 hours 29 minutes 22 seconds 456 msec
