
                                 *****************
                                 * O   R   C   A *
                                 *****************

                                            #,                                       
                                            ###                                      
                                            ####                                     
                                            #####                                    
                                            ######                                   
                                           ########,                                 
                                     ,,################,,,,,                         
                               ,,#################################,,                 
                          ,,##########################################,,             
                       ,#########################################, ''#####,          
                    ,#############################################,,   '####,        
                  ,##################################################,,,,####,       
                ,###########''''           ''''###############################       
              ,#####''   ,,,,##########,,,,          '''####'''          '####       
            ,##' ,,,,###########################,,,                        '##       
           ' ,,###''''                  '''############,,,                           
         ,,##''                                '''############,,,,        ,,,,,,###''
      ,#''                                            '''#######################'''  
     '                                                          ''''####''''         
             ,#######,   #######,   ,#######,      ##                                
            ,#'     '#,  ##    ##  ,#'     '#,    #''#        ,####,   ,####,        
            ##       ##  ##   ,#'  ##            #'  '#       #'       #'  '#        
            ##       ##  #######   ##           ,######,      #####,   #    #        
            '#,     ,#'  ##    ##  '#,     ,#' ,#      #,     #,   #   #,  ,#        
             '#######'   ##     ##  '#######'  #'      '#     '####' # '####'        



                #########################################################
                #                        -***-                          #
                #          Department of theory and spectroscopy        #
                #                                                       #
                #                      Frank Neese                      #
                #                                                       #
                #     Directorship, Architecture, Infrastructure        #
                #                    SHARK, DRIVERS                     #
                #        Core code/Algorithms in most modules           #
                #                                                       #
                #        Max Planck Institute fuer Kohlenforschung      #
                #                Kaiser Wilhelm Platz 1                 #
                #                 D-45470 Muelheim/Ruhr                 #
                #                      Germany                          #
                #                                                       #
                #                  All rights reserved                  #
                #                        -***-                          #
                #########################################################


                         Program Version 6.0.1  -  RELEASE   -


 With contributions from (in alphabetic order):
[Max-Planck-Institut fuer Kohlenforschung]                               
  Daniel Aravena         : Magnetic Suceptibility                        
  Michael Atanasov       : Ab Initio Ligand Field Theory (pilot matlab implementation)
  Alexander A. Auer      : GIAO ZORA, VPT2 properties, NMR spectrum      
  Ute Becker             : All parallelization in ORCA, NUMFREQ, NUMCALC 
  Giovanni Bistoni       : ED, misc. LED, open-shell LED, HFLD           
  Martin Brehm           : Molecular dynamics                            
  Dmytro Bykov           : pre 5.0 version of the SCF Hessian            
  Marcos Casanova-Páez   : Triplet and SCS-CIS(D). UHF-(DLPNO)-IP/EA/STEOM-CCSD. UHF-CVS-IP/STEOM-CCSD   
  Vijay G. Chilkuri      : MRCI spin determinant printing, contributions to CSF-ICE 
  Pauline Colinet        : FMM embedding                                 
  Dipayan Datta          : RHF DLPNO-CCSD density                        
  Achintya Kumar Dutta   : EOM-CC, STEOM-CC                              
  Nicolas Foglia         : Exact transition moments, OPA infrastructure, MCD improvements    
  Dmitry Ganyushin       : Spin-Orbit,Spin-Spin,Magnetic field MRCI      
  Miquel Garcia-Rates    : C-PCM and meta-GGA Hessian, CCSD/C-PCM, Gaussian charge scheme 
  Tiago L. C. Gouveia    : GS-ROHF, GS-ROCIS                             
  Yang Guo               : DLPNO-NEVPT2, F12-NEVPT2, CIM, IAO-localization        
  Andreas Hansen         : Spin unrestricted coupled pair/coupled cluster methods 
  Ingolf Harden          : AUTO-CI MPn and infrastructure                
  Benjamin Helmich-Paris : MC-RPA, TRAH-(SCF,CASSCF), AVAS, COSX integrals, SCF dyn. polar. 
  Lee Huntington         : MR-EOM, pCC                                   
  Robert Izsak           : Overlap fitted RIJCOSX, COSX-SCS-MP3, EOM     
  Riya Kayal             : Wick's Theorem for AUTO-CI, AUTO-CI UHF-CCSDT 
  Emily Kempfer          : AUTO-CI, RHF CISDT and CCSDT                  
  Christian Kollmar      : KDIIS, OOCD, Brueckner-CCSD(T), CCSD density, CASPT2, CASPT2-K, improved NEVPT2 
  Axel Koslowski         : Symmetry handling                             
  Simone Kossmann        : meta-GGA functionals, TD-DFT gradient, OOMP2, (MP2 Hessian; deprecated post 5.0) 
  Lucas Lang             : DCDCAS                                        
  Marvin Lechner         : AUTO-CI (C++ implementation), FIC-MRCC        
  Spencer Leger          : CASSCF response                               
  Dagmar Lenk            : GEPOL surface, SMD, ORCA-2-JSON               
  Dimitrios Liakos       : Extrapolation schemes; Compound Job, initial MDCI parallelization 
  Dimitrios Manganas     : Further ROCIS development; embedding schemes. LFT, Crystal Embedding 
  Dimitrios Pantazis     : SARC Basis sets                               
  Anastasios Papadopoulos: AUTO-CI, single reference methods and gradients 
  Taras Petrenko         : pre 6.0 DFT Hessian and TD-DFT gradient, (ASA, deprecated), ECA, 1-Electron XAS/XES, NRVS 
  Peter Pinski           : DLPNO-MP2, DLPNO-MP2 Gradient                 
  Christoph Reimann      : Effective Core Potentials                     
  Marius Retegan         : Local ZFS, SOC                                
  Christoph Riplinger    : Optimizer, TS searches, QM/MM, DLPNO-CCSD(T), (RO)-DLPNO pert. Triples 
  Michael Roemelt        : Original ROCIS implementation                 
  Masaaki Saitow         : Open-shell DLPNO-CCSD energy and density      
  Barbara Sandhoefer     : DKH picture change effects                    
  Kantharuban Sivalingam : CASSCF convergence/infrastructure, NEVPT2 and variants, FIC-MRCI 
  Bernardo de Souza      : ESD, SOC TD-DFT                               
  Georgi L. Stoychev     : AutoAux, RI-MP2 NMR, DLPNO-MP2 response, X2C  
  Van Anh Tran           : RI-MP2 g-tensors                              
  Willem Van den Heuvel  : Paramagnetic NMR                              
  Zikuan Wang            : NOTCH, Electric field optimization            
  Frank Wennmohs         : Technical directorship and infrastructure     
  Hang Xu                : AUTO-CI-Response properties                   
                                                                         
[FACCTs GmbH]                                                            
  Markus Bursch, Miquel Garcia-Rates, Christoph Riplinger, Bernardo de Souza, Georgi L. Stoychev 
                                                                 
  APM, Basis sets (HGBS, AHGBS, def-TZVP (Ac-Lr), def2-XVPD (La-Lu)), CI-OPT, improved COSX, DLPNO-Multilevel,           
  DOCKER, DRACO, updates on ESD, GOAT, IRC, LR-CPCM, MBIS, meta-GGA TD-DFT gradient, ML-optimized integration grids, 
  MM, NACMEs, nearIR, NEB, NEB-TS, NL-DFT gradient (VV10), 2- and 3-layer-ONIOM, interface openCOSMO-RS, QMMM,   
  Crystal-QMMM, SF, symmetry and pop. for TD-DFT, r2SCAN hybrids, SOLVATOR                                   
                                                                         
[Other institutions]                                                     
  V. Asgeirsson          : NEB                                           
  Christoph Bannwarth    : sTDA-DFT, sTD-DFT, PBEh-3c, B97-3c, D3        
  Sebastian Ehlert       : rSCAN, r2SCAN, r2SCAN-3c, D4, dhf basis sets  
  Marvin Friede          : D4 for Fr, Ra, Ac-Lr                          
  Lars Goerigk           : TD-DFT with DH, B97 family of functionals     
  Stefan Grimme          : VdW corrections, initial TS optimization, DFT functionals, gCP, sTDA/sTD-DF 
  Waldemar Hujo          : DFT-NL                                        
  H. Jonsson             : NEB                                           
  Holger Kruse           : gCP                                           
  Marcel Mueller         : wB97X-3c, vDZP basis set                      
  Hagen Neugebauer       : wr2SCAN                                       
  Tobias Risthaus        : range-separated hybrid DFT                    
  Lukas Wittmann         : regularized MP2, r2SCAN double-hybrids, wr2SCAN        
                                                                         
We gratefully acknowledge several colleagues who have allowed us to      
interface, adapt or use parts of their codes:                            
  Ed Valeev, F. Pavosevic, A. Kumar             : LibInt (2-el integral package), F12 methods 
  Garnet Chan, S. Sharma, J. Yang, R. Olivares  : DMRG                   
  Ulf Ekstrom                                   : XCFun DFT Library      
  Mihaly Kallay                                 : mrcc  (arbitrary order and MRCC methods)
  Frank Weinhold                                : gennbo (NPA and NBO analysis)           
  Simon Mueller                                 : openCOSMO-RS                            
  Christopher J. Cramer and Donald G. Truhlar   : smd solvation model                     
  S Lehtola, MJT Oliveira, MAL Marques          : LibXC Library                           
  Liviu Ungur et al                             : ANISO software                          


 Your calculation uses the libint2 library for the computation of 2-el integrals
 For citations please refer to: http://libint.valeyev.net

 Your ORCA version has been built with support for libXC version: 6.2.2
 For citations please refer to: https://libxc.gitlab.io

 This ORCA versions uses:
   CBLAS   interface :  Fast vector & matrix operations
   LAPACKE interface :  Fast linear algebra routines
   SCALAPACK package :  Parallel linear algebra routines
   Shared memory     :  Shared parallel matrices
   BLAS/LAPACK       :  OpenBLAS 0.3.27  USE64BITINT DYNAMIC_ARCH NO_AFFINITY Bulldozer SINGLE_THREADED
        Core in use  :  Bulldozer
   Copyright (c) 2011-2014, The OpenBLAS Project


NOTE: MaxCore=3000 MB was set to SCF,MP2,MDCI,CIPSI,MRCI and CIS
      => If you want to overwrite this, your respective input block should be placed after the MaxCore statement
Your calculation utilizes the atom-pairwise dispersion correction
with the Becke-Johnson damping scheme (D3BJ)


================================================================================

----- Orbital basis set information -----
Your calculation utilizes the basis: def2-SVP
   F. Weigend and R. Ahlrichs, Phys. Chem. Chem. Phys. 7, 3297 (2005).

----- AuxJ basis set information -----
Your calculation utilizes the auxiliary basis: def2/J
   F. Weigend, Phys. Chem. Chem. Phys. 8, 1057 (2006).

================================================================================
                                        WARNINGS
                       Please study these warnings very carefully!
================================================================================

WARNING: Old DensityContainer found on disk!
         Will remove this file - 
         If you want to keep old densities, please start your calculation with a different basename. 


WARNING: The chosen methods will break translational/rotational symmetry
  ===> : Will NOT project out the translational and rotational degrees of freedom
         of the Hessians, in case Hessians are calculated!

WARNING: The chosen methods will break translational symmetry
  ===> : Will NOT exploit translational invariance of the Hessians,
         in case Hessians are calculated!

WARNING: The chosen methods will break translational symmetry
  ===> : Will NOT make the numerical gradients translationally invariant,
         in case numerical gradients are calculated!

================================================================================
                                       INPUT FILE
================================================================================
NAME = pol_R_pc.inp
|  1> ! B3LYP D3BJ def2-SVP def2/J RIJCOSX CPCM KeepDens
|  2> %maxcore 3000
|  3> %pal nprocs 8 end
|  4> %cpcm epsilon 4.0 end
|  5> %scf MaxIter 300 end
|  6> %pointcharges "design_K2_neutral.pc"
|  7> * xyz -2 1
|  8> C     19.37411384    40.98301379    56.79247363
|  9> H     18.98738970    41.70301481    56.06860183
| 10> H     19.11637252    41.08805412    57.84692708
| 11> C     20.13023466    39.96813308    56.35121395
| 12> C     20.49809221    39.84006706    54.87597730
| 13> O     20.05607548    40.70981894    54.08825382
| 14> O     21.22218208    38.86346644    54.54721344
| 15> O     20.55512624    38.96367452    57.19354665
| 16> C     21.81584165    39.09167332    57.95415610
| 17> H     21.80121171    38.20821003    58.60663300
| 18> C     21.72269262    40.36879425    58.72393420
| 19> H     21.08157002    40.41500250    59.60673365
| 20> C     22.18567572    41.51410681    58.18139295
| 21> C     23.02584483    41.46521418    56.97854134
| 22> H     23.32273141    42.42220241    56.54730095
| 23> C     23.43449738    40.30080898    56.44378521
| 24> H     24.09800390    40.28390572    55.57442284
| 25> C     23.04195768    38.97111116    57.02500965
| 26> H     22.72317085    38.32285539    56.19469897
| 27> O     24.16758457    38.42494530    57.70910376
| 28> H     24.16585759    37.46009507    57.60358072
| 29> C     21.70124692    42.85764882    58.70845939
| 30> O     22.04278866    43.89358548    58.07845494
| 31> O     20.90951146    42.84941150    59.68380416
| 32> *
| 33> 
| 34>                          ****END OF INPUT****
================================================================================

                       ****************************
                       * Single Point Calculation *
                       ****************************

---------------------------------
CARTESIAN COORDINATES (ANGSTROEM)
---------------------------------
  C     19.374114   40.983014   56.792474
  H     18.987390   41.703015   56.068602
  H     19.116373   41.088054   57.846927
  C     20.130235   39.968133   56.351214
  C     20.498092   39.840067   54.875977
  O     20.056075   40.709819   54.088254
  O     21.222182   38.863466   54.547213
  O     20.555126   38.963675   57.193547
  C     21.815842   39.091673   57.954156
  H     21.801212   38.208210   58.606633
  C     21.722693   40.368794   58.723934
  H     21.081570   40.415002   59.606734
  C     22.185676   41.514107   58.181393
  C     23.025845   41.465214   56.978541
  H     23.322731   42.422202   56.547301
  C     23.434497   40.300809   56.443785
  H     24.098004   40.283906   55.574423
  C     23.041958   38.971111   57.025010
  H     22.723171   38.322855   56.194699
  O     24.167585   38.424945   57.709104
  H     24.165858   37.460095   57.603581
  C     21.701247   42.857649   58.708459
  O     22.042789   43.893585   58.078455
  O     20.909511   42.849411   59.683804

----------------------------
CARTESIAN COORDINATES (A.U.)
----------------------------
  NO LB      ZA    FRAG     MASS         X           Y           Z
   0 C     6.0000    0    12.011   36.611769   77.446672  107.322222
   1 H     1.0000    0     1.008   35.880967   78.807277  105.954302
   2 H     1.0000    0     1.008   36.124709   77.645170  109.314850
   3 C     6.0000    0    12.011   38.040631   75.528826  106.488362
   4 C     6.0000    0    12.011   38.735781   75.286816  103.700568
   5 O     8.0000    0    15.999   37.900490   76.930409  102.211987
   6 O     8.0000    0    15.999   40.104112   73.441308  103.079295
   7 O     8.0000    0    15.999   38.843559   73.630674  108.080140
   8 C     6.0000    0    12.011   41.225966   73.872557  109.517483
   9 H     1.0000    0     1.008   41.198320   72.203053  110.750486
  10 C     6.0000    0    12.011   41.049940   76.285965  110.972153
  11 H     1.0000    0     1.008   39.838394   76.373286  112.640402
  12 C     6.0000    0    12.011   41.924851   78.450293  109.946899
  13 C     6.0000    0    12.011   43.512541   78.357899  107.673839
  14 H     1.0000    0     1.008   44.073575   80.166345  106.858912
  15 C     6.0000    0    12.011   44.284782   76.157492  106.663296
  16 H     1.0000    0     1.008   45.538628   76.125549  105.020439
  17 C     6.0000    0    12.011   43.542990   73.644727  107.761651
  18 H     1.0000    0     1.008   42.940570   72.419701  106.192591
  19 O     8.0000    0    15.999   45.670116   72.612623  109.054402
  20 H     1.0000    0     1.008   45.666853   70.789321  108.854992
  21 C     6.0000    0    12.011   41.009413   80.989219  110.942910
  22 O     8.0000    0    15.999   41.654834   82.946856  109.752374
  23 O     8.0000    0    15.999   39.513250   80.973653  112.786044

--------------------------------
INTERNAL COORDINATES (ANGSTROEM)
--------------------------------
 C      0   0   0     0.000000000000     0.00000000     0.00000000
 H      1   0   0     1.091763441454     0.00000000     0.00000000
 H      1   2   0     1.090566887989   119.59323241     0.00000000
 C      1   2   3     1.340302822187   118.74473389   178.32251959
 C      4   1   2     1.525792664838   121.19021209     2.43118464
 O      5   4   1     1.253935964596   117.65726836   359.24461070
 O      5   4   1     1.259420734490   117.13530404   179.37334341
 O      4   1   2     1.378039996154   121.64336370   185.56923399
 C      8   4   1     1.477942412018   120.96143465   271.85943854
 H      9   8   4     1.098384051667   102.98477715   173.18463489
 C      9   8   4     1.494079293369   106.61866959    54.72863125
 H     11   9   8     1.092020265160   119.29331322    74.66318110
 C     11   9   8     1.349238755347   119.80344244   268.81928364
 C     13  11   9     1.468034951337   119.84042008   347.07401709
 H     14  13  11     1.090842054429   116.77317687   176.41689056
 C     14  13  11     1.344916538296   121.90546602   355.17990168
 H     16  14  13     1.093763023992   120.91331406   182.84712793
 C     16  14  13     1.503331486480   122.18937151     1.04068377
 H     18  16  14     1.100580034183   107.75417292   133.95928956
 O     18  16  14     1.425944526781   108.55070870   254.73536777
 H     20  18  16     0.970604997289   109.09814279   215.02807142
 C     13  11   9     1.522358508065   120.04914341   159.53840362
 O     22  13  11     1.259651194067   117.79849881   187.74008655
 O     22  13  11     1.256268407797   117.61671204     2.68281243

---------------------------
INTERNAL COORDINATES (A.U.)
---------------------------
 C      0   0   0     0.000000000000     0.00000000     0.00000000
 H      1   0   0     2.063133907375     0.00000000     0.00000000
 H      1   2   0     2.060872749023   119.59323241     0.00000000
 C      1   2   3     2.532805270454   118.74473389   178.32251959
 C      4   1   2     2.883330273690   121.19021209     2.43118464
 O      5   4   1     2.369595562560   117.65726836   359.24461070
 O      5   4   1     2.379960275568   117.13530404   179.37334341
 O      4   1   2     2.604118194322   121.64336370   185.56923399
 C      8   4   1     2.792906400421   120.96143465   271.85943854
 H      9   8   4     2.075645047517   102.98477715   173.18463489
 C      9   8   4     2.823400686830   106.61866959    54.72863125
 H     11   9   8     2.063619233844   119.29331322    74.66318110
 C     11   9   8     2.549691736879   119.80344244   268.81928364
 C     13  11   9     2.774184013051   119.84042008   347.07401709
 H     14  13  11     2.061392738234   116.77317687   176.41689056
 C     14  13  11     2.541523930360   121.90546602   355.17990168
 H     16  14  13     2.066912570755   120.91331406   182.84712793
 C     16  14  13     2.840884797948   122.18937151     1.04068377
 H     18  16  14     2.079794853067   107.75417292   133.95928956
 O     18  16  14     2.694644637780   108.55070870   254.73536777
 H     20  18  16     1.834177629091   109.09814279   215.02807142
 C     13  11   9     2.876840657888   120.04914341   159.53840362
 O     22  13  11     2.380395781053   117.79849881   187.74008655
 O     22  13  11     2.374003241433   117.61671204     2.68281243

---------------------
BASIS SET INFORMATION
---------------------
There are 3 groups of distinct atoms

 Group   1 Type C   : 7s4p1d contracted to 3s2p1d pattern {511/31/1}
 Group   2 Type H   : 4s1p contracted to 2s1p pattern {31/1}
 Group   3 Type O   : 7s4p1d contracted to 3s2p1d pattern {511/31/1}

Atom   0C    basis set group =>   1
Atom   1H    basis set group =>   2
Atom   2H    basis set group =>   2
Atom   3C    basis set group =>   1
Atom   4C    basis set group =>   1
Atom   5O    basis set group =>   3
Atom   6O    basis set group =>   3
Atom   7O    basis set group =>   3
Atom   8C    basis set group =>   1
Atom   9H    basis set group =>   2
Atom  10C    basis set group =>   1
Atom  11H    basis set group =>   2
Atom  12C    basis set group =>   1
Atom  13C    basis set group =>   1
Atom  14H    basis set group =>   2
Atom  15C    basis set group =>   1
Atom  16H    basis set group =>   2
Atom  17C    basis set group =>   1
Atom  18H    basis set group =>   2
Atom  19O    basis set group =>   3
Atom  20H    basis set group =>   2
Atom  21C    basis set group =>   1
Atom  22O    basis set group =>   3
Atom  23O    basis set group =>   3
---------------------------------
AUXILIARY/J BASIS SET INFORMATION
---------------------------------
There are 3 groups of distinct atoms

 Group   1 Type C   : 12s5p4d2f1g contracted to 6s4p3d1f1g pattern {711111/2111/211/2/1}
 Group   2 Type H   : 5s2p1d contracted to 3s1p1d pattern {311/2/1}
 Group   3 Type O   : 12s5p4d2f1g contracted to 6s4p3d1f1g pattern {711111/2111/211/2/1}

Atom   0C    basis set group =>   1
Atom   1H    basis set group =>   2
Atom   2H    basis set group =>   2
Atom   3C    basis set group =>   1
Atom   4C    basis set group =>   1
Atom   5O    basis set group =>   3
Atom   6O    basis set group =>   3
Atom   7O    basis set group =>   3
Atom   8C    basis set group =>   1
Atom   9H    basis set group =>   2
Atom  10C    basis set group =>   1
Atom  11H    basis set group =>   2
Atom  12C    basis set group =>   1
Atom  13C    basis set group =>   1
Atom  14H    basis set group =>   2
Atom  15C    basis set group =>   1
Atom  16H    basis set group =>   2
Atom  17C    basis set group =>   1
Atom  18H    basis set group =>   2
Atom  19O    basis set group =>   3
Atom  20H    basis set group =>   2
Atom  21C    basis set group =>   1
Atom  22O    basis set group =>   3
Atom  23O    basis set group =>   3

Checking for AutoStart:
The File: pol_R_pc.gbw exists
Trying to determine its content:
     ... Fine, the file contains calculation information
     ... Fine, the calculation information was read
     ... Fine, the file contains a basis set
     ... Fine, the basis set was read
     ... Fine, the file contains a geometry
     ... Fine, the geometry was read
     ... Fine, the file contains a set of orbitals
     ... Fine, the orbitals can be read
     => possible old guess file was deleted
     => GBW file was renamed to GES file
     => GES file is set as startup file
     => Guess is set to MORead
     ... now leaving AutoStart



           ************************************************************
           *        Program running with 8 parallel MPI-processes     *
           *              working on a common directory               *
           ************************************************************
------------------------------------------------------------------------------
                             ORCA STARTUP CALCULATIONS
                           -- RI-GTO INTEGRALS CHOSEN --
------------------------------------------------------------------------------
------------------------------------------------------------------------------
                   ___                                                        
                  /   \      - P O W E R E D   B Y -                         
                 /     \                                                     
                 |  |  |   _    _      __       _____    __    __             
                 |  |  |  | |  | |    /  \     |  _  \  |  |  /  |          
                  \  \/   | |  | |   /    \    | | | |  |  | /  /          
                 / \  \   | |__| |  /  /\  \   | |_| |  |  |/  /          
                |  |  |   |  __  | /  /__\  \  |    /   |      \           
                |  |  |   | |  | | |   __   |  |    \   |  |\   \          
                \     /   | |  | | |  |  |  |  | |\  \  |  | \   \       
                 \___/    |_|  |_| |__|  |__|  |_| \__\ |__|  \__/        
                                                                              
                      - O R C A' S   B I G   F R I E N D -                    
                                      &                                       
                       - I N T E G R A L  F E E D E R -                       
                                                                              
 v1 FN, 2020, v2 2021, v3 2022-2024                                           
------------------------------------------------------------------------------


----------------------
SHARK INTEGRAL PACKAGE
----------------------

Number of atoms                             ...     24
Number of basis functions                   ...    264
Number of shells                            ...    120
Maximum angular momentum                    ...      2
Integral batch strategy                     ... SHARK/LIBINT Hybrid
RI-J (if used) integral strategy            ... SPLIT-RIJ (Revised 2003 algorithm where possible)
Printlevel                                  ...      1
Contraction scheme used                     ... SEGMENTED contraction
Prescreening option                         ... SCHWARTZ
   Thresh                                   ... 1.000e-10
   Tcut                                     ... 1.000e-11
   Tpresel                                  ... 1.000e-11 
Coulomb Range Separation                    ... NOT USED
Exchange Range Separation                   ... NOT USED
Multipole approximations                    ... NOT USED
Finite Nucleus Model                        ... NOT USED
CABS basis                                  ... NOT available
Auxiliary Coulomb fitting basis             ... AVAILABLE
   # of basis functions in Aux-J            ...    872
   # of shells in Aux-J                     ...    280
   Maximum angular momentum in Aux-J        ...      4
Auxiliary J/K fitting basis                 ... NOT available
Auxiliary Correlation fitting basis         ... NOT available
Auxiliary 'external' fitting basis          ... NOT available

Checking pre-screening integrals            ... done (  0.0 sec) Dimension = 120
Check shell pair data                       ... done (  0.0 sec)
Shell pair information
Shell pair cut-off parameter TPreSel        ...   1.0e-11
Total number of shell pairs                 ...      7260
Shell pairs after pre-screening             ...      6258
Total number of primitive shell pairs       ...     27260
Primitive shell pairs kept                  ...     15525
          la=0 lb=0:   1775 shell pairs
          la=1 lb=0:   2252 shell pairs
          la=1 lb=1:    747 shell pairs
          la=2 lb=0:    832 shell pairs
          la=2 lb=1:    548 shell pairs
          la=2 lb=2:    104 shell pairs

Reading point charge file                   ... ok (2 point charges)
Calculating one electron integrals          ... done (  0.0 sec)
Calculating RI/J V-Matrix + Cholesky decomp.... done (  0.4 sec)
Calculating Nuclear repulsion               ... (+Point charges) done (  0.0 sec) ENN=   1118.970706657791 Eh

Diagonalization of the overlap matrix:
Smallest eigenvalue                        ... 5.331e-04
Time for diagonalization                   ...    0.018 sec
Threshold for overlap eigenvalues          ... 1.000e-07
Number of eigenvalues below threshold      ... 0
Time for construction of square roots      ...    0.027 sec
Total time needed                          ...    0.062 sec

-------------------
DFT GRID GENERATION
-------------------

General Integration Accuracy     IntAcc      ... 4.388
Radial Grid Type                 RadialGrid  ... OptM3 with GC (2021)
Angular Grid (max. ang.)         AngularGrid ... 4 (Lebedev-302)
Angular grid pruning method      GridPruning ... 4 (adaptive)
Weight generation scheme         WeightScheme... mBecke (2022)
Basis function cutoff            BFCut       ... 1.0000e-10
Integration weight cutoff        WCut        ... 1.0000e-14
Partially contracted basis set               ... off
Rotationally invariant grid construction     ... off
Angular grids for H and He will be reduced by one unit

Total number of grid points                  ...   121631
Total number of batches                      ...     1911
Average number of points per batch           ...       63
Average number of grid points per atom       ...     5068

--------------------
COSX GRID GENERATION
--------------------

GRIDX 1
-------
General Integration Accuracy     IntAcc      ... 3.816
Radial Grid Type                 RadialGrid  ... OptM3 with GC (2021)
Angular Grid (max. ang.)         AngularGrid ... 1 (Lebedev-50)
Angular grid pruning method      GridPruning ... 4 (adaptive)
Weight generation scheme         WeightScheme... mBecke (2022)
Basis function cutoff            BFCut       ... 1.0000e-10
Integration weight cutoff        WCut        ... 1.0000e-14
Partially contracted basis set               ... on
Rotationally invariant grid construction     ... off
Angular grids for H and He will be reduced by one unit

Total number of grid points                  ...    15391
Total number of batches                      ...      135
Average number of points per batch           ...      114
Average number of grid points per atom       ...      641
UseSFitting                                  ... on

GRIDX 2
-------
General Integration Accuracy     IntAcc      ... 4.020
Radial Grid Type                 RadialGrid  ... OptM3 with GC (2021)
Angular Grid (max. ang.)         AngularGrid ... 2 (Lebedev-110)
Angular grid pruning method      GridPruning ... 4 (adaptive)
Weight generation scheme         WeightScheme... mBecke (2022)
Basis function cutoff            BFCut       ... 1.0000e-10
Integration weight cutoff        WCut        ... 1.0000e-14
Partially contracted basis set               ... on
Rotationally invariant grid construction     ... off
Angular grids for H and He will be reduced by one unit

Total number of grid points                  ...    34402
Total number of batches                      ...      279
Average number of points per batch           ...      123
Average number of grid points per atom       ...     1433
UseSFitting                                  ... on

GRIDX 3
-------
General Integration Accuracy     IntAcc      ... 4.338
Radial Grid Type                 RadialGrid  ... OptM3 with GC (2021)
Angular Grid (max. ang.)         AngularGrid ... 3 (Lebedev-194)
Angular grid pruning method      GridPruning ... 4 (adaptive)
Weight generation scheme         WeightScheme... mBecke (2022)
Basis function cutoff            BFCut       ... 1.0000e-10
Integration weight cutoff        WCut        ... 1.0000e-14
Partially contracted basis set               ... on
Rotationally invariant grid construction     ... off
Angular grids for H and He will be reduced by one unit

Total number of grid points                  ...    75578
Total number of batches                      ...      602
Average number of points per batch           ...      125
Average number of grid points per atom       ...     3149
UseSFitting                                  ... on
Initializing property integral containers    ... done (  0.0 sec)

SHARK setup successfully completed in   5.0 seconds

Maximum memory used throughout the entire STARTUP-calculation: 33.8 MB


           ************************************************************
           *        Program running with 8 parallel MPI-processes     *
           *              working on a common directory               *
           ************************************************************
-------------------------------------------------------------------------------
                                 ORCA GUESS
                   Start orbitals & Density for SCF / CASSCF
-------------------------------------------------------------------------------

------------
SCF SETTINGS
------------
Hamiltonian:
 Density Functional     Method          .... DFT(GTOs)
 Exchange Functional    Exchange        .... B88
   X-Alpha parameter    XAlpha          ....  0.666667
   Becke's b parameter  XBeta           ....  0.004200
 Correlation Functional Correlation     .... LYP
 LDA part of GGA corr.  LDAOpt          .... VWN-5
 Gradients option       PostSCFGGA      .... off
 Hybrid DFT is turned on
   Fraction HF Exchange ScalHFX         ....  0.200000
   Scaling of DF-GGA-X  ScalDFX         ....  0.720000
   Scaling of DF-GGA-C  ScalDFC         ....  0.810000
   Scaling of DF-LDA-C  ScalLDAC        ....  1.000000
   Perturbative correction              ....  0.000000
   NL short-range parameter             ....  4.800000
 RI-approximation to the Coulomb term is turned on
   Number of AuxJ basis functions       .... 872
   RIJ-COSX (HFX calculated with COS-X)).... on


General Settings:
 Integral files         IntName         .... pol_R_pc
 Hartree-Fock type      HFTyp           .... RHF
 Total Charge           Charge          ....   -2
 Multiplicity           Mult            ....    1
 Number of Electrons    NEL             ....  118
 Basis Dimension        Dim             ....  264
 Nuclear Repulsion      ENuc            ....   1118.9707066578 Eh

Convergence Acceleration:
 AO-DIIS                CNVDIIS         .... on
   Start iteration      DIISMaxIt       ....    12
   Startup error        DIISStart       ....  0.200000
   # of expansion vecs  DIISMaxEq       ....     5
   Bias factor          DIISBfac        ....   1.050
   Max. coefficient     DIISMaxC        ....  10.000
 MO-DIIS                CNVKDIIS        .... off
 Trust-Rad. Augm. Hess. CNVTRAH         .... auto
   Auto Start mean grad. ratio tolernc. ....  1.125000
   Auto Start start iteration           ....     1
   Auto Start num. interpolation iter.  ....    10
   Max. Number of Micro iterations      ....    24
   Max. Number of Macro iterations      .... Maxiter - #DIIS iter
   Number of Davidson start vectors     ....     2
   Converg. threshold    (grad. norm)   ....   5.000e-05
   Grad. Scal. Fac. for Micro threshold ....   0.100
   Minimum threshold for Micro iter.    ....   1.000e-02
   NR start threshold (gradient norm)   ....   1.000e-04
   Initial trust radius                 ....   0.400
   Minimum AH scaling param. (alpha)    ....   1.000
   Maximum AH scaling param. (alpha)    .... 1000.000
   Quad. conv. algorithm                .... NR
   White noise on init. David. guess    .... on
   Maximum white noise                  ....   0.010
   Pseudo random numbers                .... off
   Inactive MOs                         .... canonical
   Orbital update algorithm             .... Taylor
   Preconditioner                       .... Diag
   Full preconditioner red. dimension   ....   250
 SOSCF                  CNVSOSCF        .... on
   Start iteration      SOSCFMaxIt      ....   150
   Startup grad/error   SOSCFStart      ....  0.003300
   Hessian update       SOSCFHessUp     .... L-BFGS
 Level Shifting         CNVShift        .... on
   Level shift para.    LevelShift      ....    0.2500
   Turn off err/grad.   ShiftErr        ....    0.0010
 Zerner damping         CNVZerner       .... off
 Static damping         CNVDamp         .... on
   Fraction old density DampFac         ....    0.7000
   Max. Damping (<1)    DampMax         ....    0.9800
   Min. Damping (>=0)   DampMin         ....    0.0000
   Turn off err/grad.   DampErr         ....    0.1000

SCF Procedure:
 Maximum # iterations   MaxIter         ....   300
 SCF integral mode      SCFMode         .... Direct
   Integral package                     .... SHARK and LIBINT hybrid scheme
 Reset frequency        DirectResetFreq ....    20
 Integral Threshold     Thresh          ....  1.000e-10 Eh
 Primitive CutOff       TCut            ....  1.000e-11 Eh

Convergence Tolerance:
 Convergence Check Mode ConvCheckMode   .... Total+1el-Energy
 Convergence forced     ConvForced      .... 0
 Energy Change          TolE            ....  1.000e-06 Eh
 1-El. energy change                    ....  1.000e-03 Eh
 Orbital Gradient       TolG            ....  5.000e-05
 Orbital Rotation angle TolX            ....  5.000e-05
 DIIS Error             TolErr          ....  1.000e-06

---------------------
INITIAL GUESS: MOREAD
---------------------
Guess MOs are being read from file: pol_R_pc.ges
Input Geometry matches current geometry (good)
Input basis set matches current basis set (good)
Occupation numbers will be reassigned to an Aufbau configuration
MOs were renormalized
MOs were reorthogonalized (Cholesky)
                      ------------------
                      INITIAL GUESS DONE (   0.1 sec)
                      ------------------
             **** ENERGY FILE WAS UPDATED (pol_R_pc.en.tmp) ****
Finished Guess after   1.1 sec
Maximum memory used throughout the entire GUESS-calculation: 14.9 MB


           ************************************************************
           *        Program running with 8 parallel MPI-processes     *
           *              working on a common directory               *
           ************************************************************

-------------------------------------------------------------------------------------------
                                      ORCA LEAN-SCF
                              memory conserving SCF solver
-------------------------------------------------------------------------------------------

--------------------
CPCM SOLVATION MODEL
--------------------
CPCM parameters:
  Epsilon                                         ...       4.0000
  Refrac                                          ...       1.3300
  Rsolv                                           ...       1.3000
  Surface type                                    ... GAUSSIAN VDW
  Discretization scheme                           ... Constant charge density
    Threshold for H atoms                         ...       5.0000 (charges/Ang^2)
    Threshold for non-H atoms                     ...       5.0000 (charges/Ang^2)
  Epsilon function type                           ...         CPCM
Solvent:                                          ... CUSTOM
Radii:
  Scheme                                          ... Element-dependent radii
  Radius for C  used is    3.8550 Bohr (=   2.0400 Ang.)
  Radius for H  used is    2.4944 Bohr (=   1.3200 Ang.)
  Radius for O  used is    3.4469 Bohr (=   1.8240 Ang.)
Calculating surface                               ...        done! (  0.0s)
Cavity surface points                             ...         2096
Cavity Volume                                     ...    1688.9442
Cavity Surface-area                               ...     856.8559
Calculating surface distance matrix               ...        done! (  0.1s)
Performing Cholesky decomposition & store         ...        done! (  0.6s)
Overall time for CPCM initialization              ...                 0.7s

----------------------------------------D-I-I-S--------------------------------------------
Iteration    Energy (Eh)           Delta-E    RMSDP     MaxDP     DIISErr   Damp  Time(sec)
-------------------------------------------------------------------------------------------
               ***  Starting incremental Fock matrix formation  ***
                              *** Initializing SOSCF ***
---------------------------------------S-O-S-C-F--------------------------------------
Iteration    Energy (Eh)           Delta-E    RMSDP     MaxDP     MaxGrad    Time(sec)
--------------------------------------------------------------------------------------
    1    -836.2969559742489309     0.00e+00  5.68e-07  2.65e-05  9.92e-07     4.8
               *** Restarting incremental Fock matrix formation ***
    2    -836.2969559741443391     1.05e-10  7.65e-07  3.26e-05  2.86e-06     4.6
                  *** Gradient check signals convergence ***

               *****************************************************
               *                     SUCCESS                       *
               *           SCF CONVERGED AFTER   2 CYCLES          *
               *****************************************************

Recomputing exchange energy using gridx3       ... done (    5.731 sec)
Old exchange energy                            :    -20.889503100 Eh
New exchange energy                            :    -20.889494488 Eh
Exchange energy change after final integration :      0.000008612 Eh
Total energy after final integration           :   -836.296947363 Eh
             **** ENERGY FILE WAS UPDATED (pol_R_pc.en.tmp) ****

----------------
TOTAL SCF ENERGY
----------------

Total Energy       :       -836.29694736254191 Eh          -22756.79687 eV

Components:
Nuclear Repulsion  :       1118.97070665779074 Eh           30448.74091 eV
Electronic Energy  :      -1955.04531765732486 Eh          -53199.48770 eV
One Electron Energy:      -3403.38831070951119 Eh          -92610.90418 eV
Two Electron Energy:       1448.34299305218633 Eh           39411.41648 eV
CPCM Dielectric    :         -0.22234497461033 Eh              -6.05031 eV

Virial components:
Potential Energy   :      -1665.76661377575783 Eh          -45327.81398 eV
Kinetic Energy     :        829.46966641321592 Eh           22571.01711 eV
Virial Ratio       :          2.00823089888127

DFT components:
N(Alpha)           :       59.000047027103 electrons
N(Beta)            :       59.000047027103 electrons
N(Total)           :      118.000094054207 electrons
E(X)               :      -83.139154475865 Eh       
E(C)               :       -4.848099828499 Eh       
E(XC)              :      -87.987254304364 Eh       

CPCM Solvation Model Properties:
Surface-charge          :          1.98172685269249
Corrected charge        :          2.00000000000000
Outlying charge corr.   :          0.00001602694265 Eh               0.00044 eV
Free-energy (cav+disp)  :  This term is not implemented in the current solvation scheme

---------------
SCF CONVERGENCE
---------------

  Last Energy change         ...   -1.0459e-10  Tolerance :   1.0000e-06
  Last MAX-Density change    ...    3.2626e-05  Tolerance :   1.0000e-05
  Last RMS-Density change    ...    7.6472e-07  Tolerance :   1.0000e-06
  Last DIIS Error            ...    1.5736e-05  Tolerance :   1.0000e-06
  Last Orbital Gradient      ...    2.8607e-06  Tolerance :   5.0000e-05
  Last Orbital Rotation      ...    9.9407e-06  Tolerance :   5.0000e-05


----------------
ORBITAL ENERGIES
----------------

  NO   OCC          E(Eh)            E(eV) 
   0   2.0000     -19.099810      -519.7323 
   1   2.0000     -19.086394      -519.3672 
   2   2.0000     -19.005265      -517.1595 
   3   2.0000     -18.997364      -516.9445 
   4   2.0000     -18.916562      -514.7458 
   5   2.0000     -18.914550      -514.6911 
   6   2.0000     -10.199994      -277.5559 
   7   2.0000     -10.190541      -277.2987 
   8   2.0000     -10.178173      -276.9622 
   9   2.0000     -10.171999      -276.7942 
  10   2.0000     -10.120079      -275.3814 
  11   2.0000     -10.119154      -275.3562 
  12   2.0000     -10.108809      -275.0747 
  13   2.0000     -10.104032      -274.9447 
  14   2.0000     -10.093677      -274.6629 
  15   2.0000     -10.092102      -274.6200 
  16   2.0000      -0.984319       -26.7847 
  17   2.0000      -0.960061       -26.1246 
  18   2.0000      -0.938069       -25.5262 
  19   2.0000      -0.854447       -23.2507 
  20   2.0000      -0.848869       -23.0989 
  21   2.0000      -0.760763       -20.7014 
  22   2.0000      -0.752237       -20.4694 
  23   2.0000      -0.700127       -19.0514 
  24   2.0000      -0.660593       -17.9756 
  25   2.0000      -0.648120       -17.6362 
  26   2.0000      -0.565835       -15.3972 
  27   2.0000      -0.527039       -14.3414 
  28   2.0000      -0.521895       -14.2015 
  29   2.0000      -0.479423       -13.0458 
  30   2.0000      -0.464479       -12.6391 
  31   2.0000      -0.440415       -11.9843 
  32   2.0000      -0.413131       -11.2419 
  33   2.0000      -0.405450       -11.0329 
  34   2.0000      -0.391755       -10.6602 
  35   2.0000      -0.380324       -10.3491 
  36   2.0000      -0.372611       -10.1393 
  37   2.0000      -0.348839        -9.4924 
  38   2.0000      -0.341755        -9.2996 
  39   2.0000      -0.333222        -9.0674 
  40   2.0000      -0.329661        -8.9705 
  41   2.0000      -0.326956        -8.8969 
  42   2.0000      -0.304437        -8.2842 
  43   2.0000      -0.289902        -7.8886 
  44   2.0000      -0.273167        -7.4332 
  45   2.0000      -0.271136        -7.3780 
  46   2.0000      -0.260306        -7.0833 
  47   2.0000      -0.254783        -6.9330 
  48   2.0000      -0.233841        -6.3631 
  49   2.0000      -0.219204        -5.9648 
  50   2.0000      -0.207789        -5.6542 
  51   2.0000      -0.195984        -5.3330 
  52   2.0000      -0.180023        -4.8987 
  53   2.0000      -0.176304        -4.7975 
  54   2.0000      -0.158961        -4.3255 
  55   2.0000      -0.144109        -3.9214 
  56   2.0000      -0.095753        -2.6056 
  57   2.0000      -0.088085        -2.3969 
  58   2.0000      -0.073187        -1.9915 
  59   0.0000       0.028011         0.7622 
  60   0.0000       0.044327         1.2062 
  61   0.0000       0.082632         2.2485 
  62   0.0000       0.120921         3.2904 
  63   0.0000       0.138345         3.7645 
  64   0.0000       0.157385         4.2827 
  65   0.0000       0.166778         4.5383 
  66   0.0000       0.178258         4.8507 
  67   0.0000       0.181311         4.9337 
  68   0.0000       0.203693         5.5428 
  69   0.0000       0.219518         5.9734 
*Only the first 10 virtual orbitals were printed.

                    ********************************
                    * MULLIKEN POPULATION ANALYSIS *
                    ********************************

-----------------------
MULLIKEN ATOMIC CHARGES
-----------------------
   0 C :    0.014558
   1 H :    0.013089
   2 H :    0.003301
   3 C :   -0.030601
   4 C :    0.058679
   5 O :   -0.402521
   6 O :   -0.453595
   7 O :   -0.443985
   8 C :    0.208551
   9 H :   -0.106159
  10 C :   -0.093444
  11 H :   -0.053248
  12 C :   -0.018080
  13 C :    0.040314
  14 H :   -0.011763
  15 C :   -0.069290
  16 H :   -0.031655
  17 C :    0.268295
  18 H :   -0.079431
  19 O :   -0.321556
  20 H :    0.155956
  21 C :    0.145636
  22 O :   -0.368837
  23 O :   -0.424214
Sum of atomic charges:   -2.0000000

--------------------------------
MULLIKEN REDUCED ORBITAL CHARGES
--------------------------------
  0 C s       :     3.124203  s :     3.124203
      pz      :     0.870687  p :     2.836491
      px      :     0.983555
      py      :     0.982249
      dz2     :     0.005974  d :     0.024748
      dxz     :     0.003716
      dyz     :     0.006141
      dx2y2   :     0.004682
      dxy     :     0.004235

  1 H s       :     0.962489  s :     0.962489
      pz      :     0.010035  p :     0.024422
      px      :     0.005433
      py      :     0.008954

  2 H s       :     0.972982  s :     0.972982
      pz      :     0.014573  p :     0.023718
      px      :     0.004808
      py      :     0.004336

  3 C s       :     3.167708  s :     3.167708
      pz      :     0.944797  p :     2.795597
      px      :     0.961239
      py      :     0.889562
      dz2     :     0.016836  d :     0.067295
      dxz     :     0.009255
      dyz     :     0.018706
      dx2y2   :     0.011940
      dxy     :     0.010558

  4 C s       :     3.042250  s :     3.042250
      pz      :     0.968014  p :     2.759959
      px      :     0.867845
      py      :     0.924101
      dz2     :     0.033118  d :     0.139112
      dxz     :     0.020061
      dyz     :     0.031153
      dx2y2   :     0.029893
      dxy     :     0.024886

  5 O s       :     3.710591  s :     3.710591
      pz      :     1.617844  p :     4.677705
      px      :     1.570311
      py      :     1.489550
      dz2     :     0.002248  d :     0.014225
      dxz     :     0.002432
      dyz     :     0.004562
      dx2y2   :     0.002594
      dxy     :     0.002389

  6 O s       :     3.719681  s :     3.719681
      pz      :     1.773141  p :     4.720663
      px      :     1.471062
      py      :     1.476459
      dz2     :     0.001688  d :     0.013252
      dxz     :     0.001455
      dyz     :     0.002316
      dx2y2   :     0.003549
      dxy     :     0.004244

  7 O s       :     3.723414  s :     3.723414
      pz      :     1.591006  p :     4.707095
      px      :     1.495518
      py      :     1.620571
      dz2     :     0.001829  d :     0.013476
      dxz     :     0.002345
      dyz     :     0.003525
      dx2y2   :     0.003503
      dxy     :     0.002273

  8 C s       :     2.991679  s :     2.991679
      pz      :     0.928969  p :     2.736611
      px      :     0.790651
      py      :     1.016990
      dz2     :     0.007136  d :     0.063159
      dxz     :     0.017702
      dyz     :     0.012875
      dx2y2   :     0.017172
      dxy     :     0.008274

  9 H s       :     1.086368  s :     1.086368
      pz      :     0.007452  p :     0.019791
      px      :     0.002700
      py      :     0.009639

 10 C s       :     3.209500  s :     3.209500
      pz      :     0.873917  p :     2.851721
      px      :     1.004673
      py      :     0.973131
      dz2     :     0.005286  d :     0.032223
      dxz     :     0.004435
      dyz     :     0.009756
      dx2y2   :     0.007915
      dxy     :     0.004832

 11 H s       :     1.029670  s :     1.029670
      pz      :     0.011511  p :     0.023579
      px      :     0.008242
      py      :     0.003825

 12 C s       :     3.171394  s :     3.171394
      pz      :     0.920518  p :     2.805983
      px      :     0.890980
      py      :     0.994486
      dz2     :     0.007909  d :     0.040702
      dxz     :     0.005809
      dyz     :     0.009958
      dx2y2   :     0.008264
      dxy     :     0.008762

 13 C s       :     3.222630  s :     3.222630
      pz      :     0.954943  p :     2.701925
      px      :     0.931535
      py      :     0.815447
      dz2     :     0.007005  d :     0.035131
      dxz     :     0.004880
      dyz     :     0.009588
      dx2y2   :     0.006762
      dxy     :     0.006896

 14 H s       :     0.988297  s :     0.988297
      pz      :     0.004830  p :     0.023466
      px      :     0.004485
      py      :     0.014151

 15 C s       :     3.171373  s :     3.171373
      pz      :     0.915696  p :     2.864891
      px      :     0.998037
      py      :     0.951159
      dz2     :     0.005343  d :     0.033026
      dxz     :     0.004456
      dyz     :     0.008720
      dx2y2   :     0.008125
      dxy     :     0.006382

 16 H s       :     1.008903  s :     1.008903
      pz      :     0.010908  p :     0.022751
      px      :     0.008634
      py      :     0.003209

 17 C s       :     2.903405  s :     2.903405
      pz      :     0.923971  p :     2.759665
      px      :     0.803063
      py      :     1.032631
      dz2     :     0.008517  d :     0.068635
      dxz     :     0.018034
      dyz     :     0.012908
      dx2y2   :     0.014970
      dxy     :     0.014206

 18 H s       :     1.056657  s :     1.056657
      pz      :     0.011555  p :     0.022775
      px      :     0.005104
      py      :     0.006115

 19 O s       :     3.738626  s :     3.738626
      pz      :     1.765156  p :     4.570467
      px      :     1.575838
      py      :     1.229473
      dz2     :     0.001962  d :     0.012463
      dxz     :     0.002921
      dyz     :     0.001264
      dx2y2   :     0.004916
      dxy     :     0.001401

 20 H s       :     0.776456  s :     0.776456
      pz      :     0.017965  p :     0.067588
      px      :     0.015488
      py      :     0.034134

 21 C s       :     3.000137  s :     3.000137
      pz      :     0.920232  p :     2.714260
      px      :     0.880952
      py      :     0.913076
      dz2     :     0.033495  d :     0.139968
      dxz     :     0.020580
      dyz     :     0.034245
      dx2y2   :     0.025431
      dxy     :     0.026217

 22 O s       :     3.736513  s :     3.736513
      pz      :     1.561732  p :     4.617971
      px      :     1.582430
      py      :     1.473809
      dz2     :     0.001932  d :     0.014353
      dxz     :     0.000922
      dyz     :     0.004643
      dx2y2   :     0.003327
      dxy     :     0.003530

 23 O s       :     3.724180  s :     3.724180
      pz      :     1.427208  p :     4.686007
      px      :     1.476447
      py      :     1.782351
      dz2     :     0.004203  d :     0.014027
      dxz     :     0.005123
      dyz     :     0.001811
      dx2y2   :     0.001807
      dxy     :     0.001083



                     *******************************
                     * LOEWDIN POPULATION ANALYSIS *
                     *******************************

----------------------
LOEWDIN ATOMIC CHARGES
----------------------
   0 C :   -0.055699
   1 H :    0.026530
   2 H :    0.017638
   3 C :   -0.047696
   4 C :   -0.064309
   5 O :   -0.381188
   6 O :   -0.419578
   7 O :   -0.218868
   8 C :    0.067368
   9 H :   -0.018553
  10 C :   -0.072955
  11 H :    0.002325
  12 C :   -0.029596
  13 C :    0.005209
  14 H :    0.030791
  15 C :   -0.063691
  16 H :    0.012855
  17 C :    0.043560
  18 H :   -0.016792
  19 O :   -0.151362
  20 H :    0.069571
  21 C :   -0.020993
  22 O :   -0.330025
  23 O :   -0.384544

-------------------------------
LOEWDIN REDUCED ORBITAL CHARGES
-------------------------------
  0 C s       :     2.895933  s :     2.895933
      pz      :     1.044267  p :     3.092783
      px      :     1.007401
      py      :     1.041116
      dz2     :     0.016585  d :     0.066983
      dxz     :     0.010325
      dyz     :     0.017769
      dx2y2   :     0.009966
      dxy     :     0.012338

  1 H s       :     0.901490  s :     0.901490
      pz      :     0.029451  p :     0.071980
      px      :     0.016789
      py      :     0.025740

  2 H s       :     0.911288  s :     0.911288
      pz      :     0.043228  p :     0.071074
      px      :     0.014976
      py      :     0.012870

  3 C s       :     2.899361  s :     2.899361
      pz      :     0.998757  p :     2.984400
      px      :     1.001975
      py      :     0.983668
      dz2     :     0.043752  d :     0.163934
      dxz     :     0.021365
      dyz     :     0.044897
      dx2y2   :     0.026789
      dxy     :     0.027131

  4 C s       :     2.864447  s :     2.864447
      pz      :     1.013597  p :     2.874899
      px      :     0.894981
      py      :     0.966320
      dz2     :     0.082304  d :     0.324963
      dxz     :     0.045425
      dyz     :     0.073231
      dx2y2   :     0.062286
      dxy     :     0.061717

  5 O s       :     3.567536  s :     3.567536
      pz      :     1.654017  p :     4.788341
      px      :     1.582658
      py      :     1.551666
      dz2     :     0.003572  d :     0.025311
      dxz     :     0.003900
      dyz     :     0.009418
      dx2y2   :     0.004013
      dxy     :     0.004408

  6 O s       :     3.565551  s :     3.565551
      pz      :     1.776322  p :     4.829913
      px      :     1.517390
      py      :     1.536201
      dz2     :     0.003136  d :     0.024114
      dxz     :     0.002621
      dyz     :     0.004279
      dx2y2   :     0.005023
      dxy     :     0.009055

  7 O s       :     3.460038  s :     3.460038
      pz      :     1.597924  p :     4.732407
      px      :     1.506557
      py      :     1.627926
      dz2     :     0.003463  d :     0.026423
      dxz     :     0.005337
      dyz     :     0.006798
      dx2y2   :     0.006753
      dxy     :     0.004072

  8 C s       :     2.868824  s :     2.868824
      pz      :     0.975437  p :     2.914904
      px      :     0.871295
      py      :     1.068173
      dz2     :     0.013667  d :     0.148904
      dxz     :     0.042293
      dyz     :     0.033321
      dx2y2   :     0.043326
      dxy     :     0.016297

  9 H s       :     0.954739  s :     0.954739
      pz      :     0.024008  p :     0.063814
      px      :     0.009509
      py      :     0.030297

 10 C s       :     2.875569  s :     2.875569
      pz      :     1.037037  p :     3.110599
      px      :     1.035604
      py      :     1.037958
      dz2     :     0.013535  d :     0.086787
      dxz     :     0.011699
      dyz     :     0.027194
      dx2y2   :     0.022129
      dxy     :     0.012229

 11 H s       :     0.922450  s :     0.922450
      pz      :     0.035332  p :     0.075226
      px      :     0.026293
      py      :     0.013601

 12 C s       :     2.898242  s :     2.898242
      pz      :     0.991254  p :     3.025165
      px      :     0.933575
      py      :     1.100335
      dz2     :     0.020512  d :     0.106189
      dxz     :     0.015260
      dyz     :     0.025724
      dx2y2   :     0.022524
      dxy     :     0.022171

 13 C s       :     2.872973  s :     2.872973
      pz      :     0.999808  p :     3.030361
      px      :     0.959246
      py      :     1.071308
      dz2     :     0.017980  d :     0.091457
      dxz     :     0.012459
      dyz     :     0.025538
      dx2y2   :     0.018645
      dxy     :     0.016834

 14 H s       :     0.897277  s :     0.897277
      pz      :     0.015757  p :     0.071931
      px      :     0.014313
      py      :     0.041861

 15 C s       :     2.877029  s :     2.877029
      pz      :     1.028289  p :     3.100202
      px      :     1.018420
      py      :     1.053493
      dz2     :     0.013407  d :     0.086461
      dxz     :     0.011190
      dyz     :     0.023199
      dx2y2   :     0.022322
      dxy     :     0.016343

 16 H s       :     0.918232  s :     0.918232
      pz      :     0.031993  p :     0.068913
      px      :     0.025513
      py      :     0.011407

 17 C s       :     2.846034  s :     2.846034
      pz      :     0.999422  p :     2.952093
      px      :     0.910445
      py      :     1.042225
      dz2     :     0.017567  d :     0.158313
      dxz     :     0.044422
      dyz     :     0.031319
      dx2y2   :     0.035960
      dxy     :     0.029045

 18 H s       :     0.942082  s :     0.942082
      pz      :     0.036774  p :     0.074709
      px      :     0.016504
      py      :     0.021431

 19 O s       :     3.457466  s :     3.457466
      pz      :     1.760728  p :     4.670212
      px      :     1.588309
      py      :     1.321175
      dz2     :     0.003642  d :     0.023683
      dxz     :     0.004680
      dyz     :     0.001937
      dx2y2   :     0.010796
      dxy     :     0.002629

 20 H s       :     0.751617  s :     0.751617
      pz      :     0.047814  p :     0.178812
      px      :     0.040958
      py      :     0.090040

 21 C s       :     2.845442  s :     2.845442
      pz      :     0.955594  p :     2.855379
      px      :     0.915012
      py      :     0.984773
      dz2     :     0.070544  d :     0.320172
      dxz     :     0.048807
      dyz     :     0.082941
      dx2y2   :     0.058840
      dxy     :     0.059039

 22 O s       :     3.576057  s :     3.576057
      pz      :     1.586947  p :     4.728687
      px      :     1.592279
      py      :     1.549461
      dz2     :     0.002995  d :     0.025281
      dxz     :     0.001771
      dyz     :     0.008845
      dx2y2   :     0.006308
      dxy     :     0.005362

 23 O s       :     3.568639  s :     3.568639
      pz      :     1.493257  p :     4.790944
      px      :     1.513275
      py      :     1.784412
      dz2     :     0.006445  d :     0.024961
      dxz     :     0.010974
      dyz     :     0.002774
      dx2y2   :     0.002997
      dxy     :     0.001770



                      *****************************
                      * MAYER POPULATION ANALYSIS *
                      *****************************

  NA   - Mulliken gross atomic population
  ZA   - Total nuclear charge
  QA   - Mulliken gross atomic charge
  VA   - Mayer's total valence
  BVA  - Mayer's bonded valence
  FA   - Mayer's free valence

  ATOM       NA         ZA         QA         VA         BVA        FA
  0 C      5.9854     6.0000     0.0146     3.8938     3.8938    -0.0000
  1 H      0.9869     1.0000     0.0131     1.0175     1.0175    -0.0000
  2 H      0.9967     1.0000     0.0033     1.0173     1.0173    -0.0000
  3 C      6.0306     6.0000    -0.0306     3.8858     3.8858     0.0000
  4 C      5.9413     6.0000     0.0587     4.5379     4.5379     0.0000
  5 O      8.4025     8.0000    -0.4025     2.0996     2.0996     0.0000
  6 O      8.4536     8.0000    -0.4536     2.0239     2.0239     0.0000
  7 O      8.4440     8.0000    -0.4440     1.9984     1.9984     0.0000
  8 C      5.7914     6.0000     0.2086     3.8241     3.8241     0.0000
  9 H      1.1062     1.0000    -0.1062     0.9907     0.9907     0.0000
 10 C      6.0934     6.0000    -0.0934     3.8676     3.8676     0.0000
 11 H      1.0532     1.0000    -0.0532     1.0498     1.0498    -0.0000
 12 C      6.0181     6.0000    -0.0181     3.7030     3.7030     0.0000
 13 C      5.9597     6.0000     0.0403     3.9062     3.9062     0.0000
 14 H      1.0118     1.0000    -0.0118     1.0397     1.0397     0.0000
 15 C      6.0693     6.0000    -0.0693     3.8461     3.8461     0.0000
 16 H      1.0317     1.0000    -0.0317     0.9870     0.9870     0.0000
 17 C      5.7317     6.0000     0.2683     3.8473     3.8473     0.0000
 18 H      1.0794     1.0000    -0.0794     1.0696     1.0696     0.0000
 19 O      8.3216     8.0000    -0.3216     2.0489     2.0489    -0.0000
 20 H      0.8440     1.0000     0.1560     1.0194     1.0194    -0.0000
 21 C      5.8544     6.0000     0.1456     4.5177     4.5177    -0.0000
 22 O      8.3688     8.0000    -0.3688     2.1379     2.1379    -0.0000
 23 O      8.4242     8.0000    -0.4242     2.0773     2.0773     0.0000

  Mayer bond orders larger than 0.100000
B(  0-C ,  1-H ) :   0.9205 B(  0-C ,  2-H ) :   0.9209 B(  0-C ,  3-C ) :   1.9390 
B(  3-C ,  4-C ) :   0.8417 B(  3-C ,  7-O ) :   1.0220 B(  4-C ,  5-O ) :   1.9125 
B(  4-C ,  6-O ) :   1.7656 B(  5-O ,  6-O ) :   0.1137 B(  6-O , 18-H ) :   0.1099 
B(  7-O ,  8-C ) :   0.8886 B(  8-C ,  9-H ) :   0.8881 B(  8-C , 10-C ) :   0.9907 
B(  8-C , 17-C ) :   0.9520 B( 10-C , 11-H ) :   0.9277 B( 10-C , 12-C ) :   1.7625 
B( 12-C , 13-C ) :   1.0815 B( 12-C , 21-C ) :   0.8233 B( 13-C , 14-H ) :   0.9722 
B( 13-C , 15-C ) :   1.7608 B( 15-C , 16-H ) :   0.9639 B( 15-C , 17-C ) :   0.9701 
B( 17-C , 18-H ) :   0.8686 B( 17-C , 19-O ) :   1.0436 B( 19-O , 20-H ) :   0.9772 
B( 21-C , 22-O ) :   1.8690 B( 21-C , 23-O ) :   1.8301 B( 22-O , 23-O ) :   0.1270 


-------
TIMINGS
-------

Total SCF time: 0 days 0 hours 0 min 17 sec 

Total time                  ....      17.114 sec
Sum of individual times     ....      16.879 sec  ( 98.6%)

SCF preparation             ....       1.675 sec  (  9.8%)
Fock matrix formation       ....      14.591 sec  ( 85.3%)
  Startup                   ....       0.082 sec  (  0.6% of F)
  Split-RI-J                ....       0.695 sec  (  4.8% of F)
  Chain of spheres X        ....      11.347 sec  ( 77.8% of F)
  XC integration            ....       1.400 sec  (  9.6% of F)
    Basis function eval.    ....       0.334 sec  ( 23.9% of XC)
    Density eval.           ....       0.245 sec  ( 17.5% of XC)
    XC-Functional eval.     ....       0.054 sec  (  3.8% of XC)
    XC-Potential eval.      ....       0.343 sec  ( 24.5% of XC)
  CPCM terms                ....       0.878 sec  (  6.0% of F)
Diagonalization             ....       0.000 sec  (  0.0%)
Density matrix formation    ....       0.081 sec  (  0.5%)
Total Energy calculation    ....       0.064 sec  (  0.4%)
Population analysis         ....       0.129 sec  (  0.8%)
Orbital Transformation      ....       0.085 sec  (  0.5%)
Orbital Orthonormalization  ....       0.000 sec  (  0.0%)
DIIS solution               ....       0.107 sec  (  0.6%)
SOSCF solution              ....       0.148 sec  (  0.9%)
Finished LeanSCF after  17.4 sec

Maximum memory used throughout the entire LEANSCF-calculation: 31.1 MB


-------------------------------------------------------------------------------
                          DFT DISPERSION CORRECTION                            
                                                                               
                              DFTD3 V3.1  Rev 1                                
                          USING Becke-Johnson damping                          
-------------------------------------------------------------------------------
The B3LYP functional is recognized
Active option DFTDOPT                   ...         4   

molecular C6(AA) [au] = 6928.786757 


            DFT-D V3
 parameters
 s6 scaling factor         :     1.0000 
 a1 scaling factor         :     0.3981 
 s8 scaling factor         :     1.9889 
 a2 scaling factor         :     4.4211 
 ad hoc parameters k1-k3   :    16.0000     1.3333    -4.0000 

 Edisp/kcal,au: -33.411684536342  -0.053244902831 
 E6   /kcal   : -15.647845248 
 E8   /kcal   : -17.763839288 
 % E8         :  53.166547975 

-------------------------   ----------------
Dispersion correction           -0.053244903
-------------------------   ----------------


-------------------------   --------------------
FINAL SINGLE POINT ENERGY      -836.350192265373
-------------------------   --------------------



           ************************************************************
           *        Program running with 8 parallel MPI-processes     *
           *              working on a common directory               *
           ************************************************************

------------------------------------------------------------------------------
                              ORCA PROPERTY CALCULATIONS
------------------------------------------------------------------------------

GBWName                                 ... pol_R_pc.gbw
Number of atoms                         ...     24
Number of basis functions               ...    264
Max core memory                         ...   3000 MB

Electric properties:
Dipole moment                           ... YES
Quadrupole moment                       ...  NO
Static polarizability (Dipole/Dipole)   ...  NO
Static polarizability (Dipole/Quad.)    ...  NO
Static polarizability (Quad./Quad.)     ...  NO
Static polarizability (Velocity)        ...  NO

Atomic electric properties:
Dipole moment                           ...  NO
Quadrupole moment                       ...  NO
Static polarizability                   ...  NO

Choice of electric origin               ... Center of mass
Position of electric origin             ...    40.846256    76.630677   107.843484

General magnetic properties:
Magnetizability                         ...  NO

EPR properties:
g-Tensor (aka g-matrix)                 ...  NO
Zero-Field splitting spin-orbit         ...  NO
Zero-field splitting spin-spin          ...  NO
Hyperfine couplings                     ...  NO (   0 nuclei)
Quadrupole couplings                    ...  NO (   0 nuclei)
Contact density                         ...  NO (   0 nuclei)

NMR properties:
Chemical shifts                         ...  NO (   0 nuclei)
Spin-rotation constants                 ...  NO (   0 nuclei)
Spin-spin couplings                     ...  NO (   0 nuclei,    0 pairs)

Choice of magnetic origin               ... GIAO
Position of magnetic origin             ...     0.000000     0.000000     0.000000

Properties with geometric perturbations:
SCF Hessian                             ...  NO
IR spectrum                             ...  NO
VCD spectrum                            ...  NO
X-ray spectroscopy properties:
SCF XES/XAS/RIXS spectra                ...  NO


-------------
DIPOLE MOMENT
-------------

Method             : SCF
Type of density    : Electron Density
Multiplicity       :   1
Irrep              :   0
Energy             :  -836.2969473625419141 Eh
Relativity type    : 
Basis              : AO
                                X                 Y                 Z
Electronic contribution:      0.148165926       2.504341477       0.466052984
Nuclear contribution   :      2.219201252      -4.221843304       1.393098155
                        -----------------------------------------
Total Dipole Moment    :      2.367367179      -1.717501827       1.859151139
                        -----------------------------------------
Magnitude (a.u.)       :      3.465643207
Magnitude (Debye)      :      8.808964973



--------------------
Rotational spectrum 
--------------------
 
Rotational constants in cm-1:             0.023208             0.016273             0.012591 
Rotational constants in MHz :           695.743474           487.844883           377.473733 

Dipole components along the rotational axes: 
x,y,z [a.u.] :     0.260221    -3.419810     0.497860 
x,y,z [Debye]:     0.661428    -8.692467     1.265460 

 

Dipole moment calculation done in   0.0 sec 

Maximum memory used throughout the entire PROP-calculation: 13.8 MB

--------------------------------
SUGGESTED CITATIONS FOR THIS RUN
--------------------------------

Below you find a list of papers that are relevant to this ORCA run
We neither can nor want to force you to cite these papers, but we appreciate if you do
You receive ORCA, which is the product of decades of hard work by many enthusiastic individuals, for free
The only thing we kindly ask in return is that you cite our papers,
We deeply appreciate it, if you show your appreciation for ORCA by not just citing the generic ORCA reference.

Please note that relegating all ORCA citations to the supporting information does *not* help us.
SI sections are not indexed - citations you put there will not count into any citation statistics
But we need these citations in order to attract the funding resources that allow us to do what we are doing

Therefore, if you are a happy ORCA user, please consider citing a few of the papers listed below in the main body of your paper

In addition to the list printed below, the program has created the file pol_R_pc.bibtex that contains the list in bibtex format
You can import this file easily into all common literature databanks and citation aid programs


List of essential papers. We consider these as the minimum necessary citations

  1. Neese,F.
     Software update: the ORCA program system, version 5.0
     WIRES Comput. Molec. Sci., 2022 12(1)e1606
     doi.org/10.1002/wcms.1606

List of papers to cite with high priority. The work reported in these papers was absolutely
necessary for this run to complete.
Our perspective: the developers of density functionals and basis sets usually get cited in chemistry papers
Good! But without the algorithms to do something with them, the functionals or basis sets would not do anything.
Hence, in our opinion, the algorithm design and method developments papers are equally worthy of getting cited

  1. Neese,F.
     An improvement of the resolution of the identity approximation for the formation of the Coulomb matrix
     J. Comp. Chem., 2003 24(14)1740-1747
     doi.org/10.1002/jcc.10318
  2. Neese,F.; Wennmohs,F.; Hansen,A.; Becker,U.
     Efficient, approximate and parallel Hartree-Fock and hybrid DFT calculations. A 'chain-of-spheres' algorithm for the Hartree-Fock exchange
     Chem. Phys., 2009 356(1-3)98-109
     doi.org/10.1016/j.chemphys.2008.10.036
  3. Garcia-Rates,M.; Neese,F.
     Effect of the Solute Cavity on the Solvation Energy and its Derivatives within the Framework of the Gaussian Charge Scheme
     J. Comput. Chem., 2020 41 922-939
     doi.org/10.1002/jcc.26139
  4. Helmich-Paris,B.; de Souza,B.; Neese,F.; Izsák,R.
     An improved chain of spheres for exchange algorithm
     J. Chem. Phys., 2021 155 104109
     doi.org/doi: 10.1063/5.0058766.
  5. Neese,F.
     The SHARK Integral Generation and Digestion System
     J. Comp. Chem., 2022  1-16
     doi.org/10.1002/jcc.26942
  6. Grimme,S.; Antony,J.; Ehrlich,S.; Krieg,H.
     A consistent and accurate ab initio parametrization of density functional dispersion correction (DFT-D) for the 94 elements H-Pu
     J. Chem. Phys., 2010 132 154104
     doi.org/10.1063/1.3382344
  7. Grimme,S.; Ehrlich,S.; Goerigk,L.
     Effect of the damping function in dispersion corrected density functional theory
     J. Comput. Chem., 2011 32(7)1456-1465
     doi.org/10.1002/jcc.21759

List of suggested additional citations. These are papers that are important in the 'surrounding' of 
of this run, or papers that preceded the highly important papers. If you like your results we are grateful for a citation.

  1. Izsak,R.; Neese,F.
     An overlap fitted chain of spheres exchange method
     J. Chem. Phys., 2011 135 144105
     doi.org/10.1063/1.3646921
  2. Izsak,R.; Hansen,A.; Neese,F.
     The resolution of identity and chain of spheres approximations for the LPNO-CCSD singles Fock term
     Molec. Phys., 2012 110 2413-2417
     doi.org/10.1080/00268976.2012.687466
  3. Neese,F.
     The ORCA program system
     WIRES Comput. Molec. Sci., 2012 2(1)73-78
     doi.org/10.1002/wcms.81
  4. Izsak,R.; Neese,F.; Klopper,W.
     Robust fitting techniques in the chain of spheres approximation to the Fock exchange: The role of the complementary space
     J. Chem. Phys., 2013 139 
     doi.org/10.1063/1.4819264
  5. Neese,F.
     Software update: the ORCA program system, version 4.0
     WIRES Comput. Molec. Sci., 2018 8(1)1-6
     doi.org/10.1002/wcms.1327
  6. Neese,F.; Wennmohs,F.; Becker,U.; Riplinger,C.
     The ORCA quantum chemistry program package
     J. Chem. Phys., 2020 152 Art. No. L224108
     doi.org/10.1063/5.0004608

List of optional additional citations

  1. Neese,F.
     Approximate second-order SCF convergence for spin unrestricted wavefunctions
     Chem. Phys. Lett., 2000 325(1-3)93-98
     doi.org/10.1016/s0009-2614(00)00662-x

Timings for individual modules:

Sum of individual times          ...       29.170 sec (=   0.486 min)
Startup calculation              ...        6.626 sec (=   0.110 min)  22.7 %
SCF iterations                   ...       20.703 sec (=   0.345 min)  71.0 %
Property calculations            ...        1.841 sec (=   0.031 min)   6.3 %
                             ****ORCA TERMINATED NORMALLY****
TOTAL RUN TIME: 0 days 0 hours 0 minutes 38 seconds 860 msec
