
                                 *****************
                                 * O   R   C   A *
                                 *****************

                                            #,                                       
                                            ###                                      
                                            ####                                     
                                            #####                                    
                                            ######                                   
                                           ########,                                 
                                     ,,################,,,,,                         
                               ,,#################################,,                 
                          ,,##########################################,,             
                       ,#########################################, ''#####,          
                    ,#############################################,,   '####,        
                  ,##################################################,,,,####,       
                ,###########''''           ''''###############################       
              ,#####''   ,,,,##########,,,,          '''####'''          '####       
            ,##' ,,,,###########################,,,                        '##       
           ' ,,###''''                  '''############,,,                           
         ,,##''                                '''############,,,,        ,,,,,,###''
      ,#''                                            '''#######################'''  
     '                                                          ''''####''''         
             ,#######,   #######,   ,#######,      ##                                
            ,#'     '#,  ##    ##  ,#'     '#,    #''#        ,####,   ,####,        
            ##       ##  ##   ,#'  ##            #'  '#       #'       #'  '#        
            ##       ##  #######   ##           ,######,      #####,   #    #        
            '#,     ,#'  ##    ##  '#,     ,#' ,#      #,     #,   #   #,  ,#        
             '#######'   ##     ##  '#######'  #'      '#     '####' # '####'        



                #########################################################
                #                        -***-                          #
                #          Department of theory and spectroscopy        #
                #                                                       #
                #                      Frank Neese                      #
                #                                                       #
                #     Directorship, Architecture, Infrastructure        #
                #                    SHARK, DRIVERS                     #
                #        Core code/Algorithms in most modules           #
                #                                                       #
                #        Max Planck Institute fuer Kohlenforschung      #
                #                Kaiser Wilhelm Platz 1                 #
                #                 D-45470 Muelheim/Ruhr                 #
                #                      Germany                          #
                #                                                       #
                #                  All rights reserved                  #
                #                        -***-                          #
                #########################################################


                         Program Version 6.0.1  -  RELEASE   -


 With contributions from (in alphabetic order):
[Max-Planck-Institut fuer Kohlenforschung]                               
  Daniel Aravena         : Magnetic Suceptibility                        
  Michael Atanasov       : Ab Initio Ligand Field Theory (pilot matlab implementation)
  Alexander A. Auer      : GIAO ZORA, VPT2 properties, NMR spectrum      
  Ute Becker             : All parallelization in ORCA, NUMFREQ, NUMCALC 
  Giovanni Bistoni       : ED, misc. LED, open-shell LED, HFLD           
  Martin Brehm           : Molecular dynamics                            
  Dmytro Bykov           : pre 5.0 version of the SCF Hessian            
  Marcos Casanova-Páez   : Triplet and SCS-CIS(D). UHF-(DLPNO)-IP/EA/STEOM-CCSD. UHF-CVS-IP/STEOM-CCSD   
  Vijay G. Chilkuri      : MRCI spin determinant printing, contributions to CSF-ICE 
  Pauline Colinet        : FMM embedding                                 
  Dipayan Datta          : RHF DLPNO-CCSD density                        
  Achintya Kumar Dutta   : EOM-CC, STEOM-CC                              
  Nicolas Foglia         : Exact transition moments, OPA infrastructure, MCD improvements    
  Dmitry Ganyushin       : Spin-Orbit,Spin-Spin,Magnetic field MRCI      
  Miquel Garcia-Rates    : C-PCM and meta-GGA Hessian, CCSD/C-PCM, Gaussian charge scheme 
  Tiago L. C. Gouveia    : GS-ROHF, GS-ROCIS                             
  Yang Guo               : DLPNO-NEVPT2, F12-NEVPT2, CIM, IAO-localization        
  Andreas Hansen         : Spin unrestricted coupled pair/coupled cluster methods 
  Ingolf Harden          : AUTO-CI MPn and infrastructure                
  Benjamin Helmich-Paris : MC-RPA, TRAH-(SCF,CASSCF), AVAS, COSX integrals, SCF dyn. polar. 
  Lee Huntington         : MR-EOM, pCC                                   
  Robert Izsak           : Overlap fitted RIJCOSX, COSX-SCS-MP3, EOM     
  Riya Kayal             : Wick's Theorem for AUTO-CI, AUTO-CI UHF-CCSDT 
  Emily Kempfer          : AUTO-CI, RHF CISDT and CCSDT                  
  Christian Kollmar      : KDIIS, OOCD, Brueckner-CCSD(T), CCSD density, CASPT2, CASPT2-K, improved NEVPT2 
  Axel Koslowski         : Symmetry handling                             
  Simone Kossmann        : meta-GGA functionals, TD-DFT gradient, OOMP2, (MP2 Hessian; deprecated post 5.0) 
  Lucas Lang             : DCDCAS                                        
  Marvin Lechner         : AUTO-CI (C++ implementation), FIC-MRCC        
  Spencer Leger          : CASSCF response                               
  Dagmar Lenk            : GEPOL surface, SMD, ORCA-2-JSON               
  Dimitrios Liakos       : Extrapolation schemes; Compound Job, initial MDCI parallelization 
  Dimitrios Manganas     : Further ROCIS development; embedding schemes. LFT, Crystal Embedding 
  Dimitrios Pantazis     : SARC Basis sets                               
  Anastasios Papadopoulos: AUTO-CI, single reference methods and gradients 
  Taras Petrenko         : pre 6.0 DFT Hessian and TD-DFT gradient, (ASA, deprecated), ECA, 1-Electron XAS/XES, NRVS 
  Peter Pinski           : DLPNO-MP2, DLPNO-MP2 Gradient                 
  Christoph Reimann      : Effective Core Potentials                     
  Marius Retegan         : Local ZFS, SOC                                
  Christoph Riplinger    : Optimizer, TS searches, QM/MM, DLPNO-CCSD(T), (RO)-DLPNO pert. Triples 
  Michael Roemelt        : Original ROCIS implementation                 
  Masaaki Saitow         : Open-shell DLPNO-CCSD energy and density      
  Barbara Sandhoefer     : DKH picture change effects                    
  Kantharuban Sivalingam : CASSCF convergence/infrastructure, NEVPT2 and variants, FIC-MRCI 
  Bernardo de Souza      : ESD, SOC TD-DFT                               
  Georgi L. Stoychev     : AutoAux, RI-MP2 NMR, DLPNO-MP2 response, X2C  
  Van Anh Tran           : RI-MP2 g-tensors                              
  Willem Van den Heuvel  : Paramagnetic NMR                              
  Zikuan Wang            : NOTCH, Electric field optimization            
  Frank Wennmohs         : Technical directorship and infrastructure     
  Hang Xu                : AUTO-CI-Response properties                   
                                                                         
[FACCTs GmbH]                                                            
  Markus Bursch, Miquel Garcia-Rates, Christoph Riplinger, Bernardo de Souza, Georgi L. Stoychev 
                                                                 
  APM, Basis sets (HGBS, AHGBS, def-TZVP (Ac-Lr), def2-XVPD (La-Lu)), CI-OPT, improved COSX, DLPNO-Multilevel,           
  DOCKER, DRACO, updates on ESD, GOAT, IRC, LR-CPCM, MBIS, meta-GGA TD-DFT gradient, ML-optimized integration grids, 
  MM, NACMEs, nearIR, NEB, NEB-TS, NL-DFT gradient (VV10), 2- and 3-layer-ONIOM, interface openCOSMO-RS, QMMM,   
  Crystal-QMMM, SF, symmetry and pop. for TD-DFT, r2SCAN hybrids, SOLVATOR                                   
                                                                         
[Other institutions]                                                     
  V. Asgeirsson          : NEB                                           
  Christoph Bannwarth    : sTDA-DFT, sTD-DFT, PBEh-3c, B97-3c, D3        
  Sebastian Ehlert       : rSCAN, r2SCAN, r2SCAN-3c, D4, dhf basis sets  
  Marvin Friede          : D4 for Fr, Ra, Ac-Lr                          
  Lars Goerigk           : TD-DFT with DH, B97 family of functionals     
  Stefan Grimme          : VdW corrections, initial TS optimization, DFT functionals, gCP, sTDA/sTD-DF 
  Waldemar Hujo          : DFT-NL                                        
  H. Jonsson             : NEB                                           
  Holger Kruse           : gCP                                           
  Marcel Mueller         : wB97X-3c, vDZP basis set                      
  Hagen Neugebauer       : wr2SCAN                                       
  Tobias Risthaus        : range-separated hybrid DFT                    
  Lukas Wittmann         : regularized MP2, r2SCAN double-hybrids, wr2SCAN        
                                                                         
We gratefully acknowledge several colleagues who have allowed us to      
interface, adapt or use parts of their codes:                            
  Ed Valeev, F. Pavosevic, A. Kumar             : LibInt (2-el integral package), F12 methods 
  Garnet Chan, S. Sharma, J. Yang, R. Olivares  : DMRG                   
  Ulf Ekstrom                                   : XCFun DFT Library      
  Mihaly Kallay                                 : mrcc  (arbitrary order and MRCC methods)
  Frank Weinhold                                : gennbo (NPA and NBO analysis)           
  Simon Mueller                                 : openCOSMO-RS                            
  Christopher J. Cramer and Donald G. Truhlar   : smd solvation model                     
  S Lehtola, MJT Oliveira, MAL Marques          : LibXC Library                           
  Liviu Ungur et al                             : ANISO software                          


 Your calculation uses the libint2 library for the computation of 2-el integrals
 For citations please refer to: http://libint.valeyev.net

 Your ORCA version has been built with support for libXC version: 6.2.2
 For citations please refer to: https://libxc.gitlab.io

 This ORCA versions uses:
   CBLAS   interface :  Fast vector & matrix operations
   LAPACKE interface :  Fast linear algebra routines
   SCALAPACK package :  Parallel linear algebra routines
   Shared memory     :  Shared parallel matrices
   BLAS/LAPACK       :  OpenBLAS 0.3.27  USE64BITINT DYNAMIC_ARCH NO_AFFINITY Bulldozer SINGLE_THREADED
        Core in use  :  Bulldozer
   Copyright (c) 2011-2014, The OpenBLAS Project


NOTE: MaxCore=3000 MB was set to SCF,MP2,MDCI,CIPSI,MRCI and CIS
      => If you want to overwrite this, your respective input block should be placed after the MaxCore statement
Your calculation utilizes the atom-pairwise dispersion correction
with the Becke-Johnson damping scheme (D3BJ)


================================================================================

----- Orbital basis set information -----
Your calculation utilizes the basis: def2-SVP
   F. Weigend and R. Ahlrichs, Phys. Chem. Chem. Phys. 7, 3297 (2005).

----- AuxJ basis set information -----
Your calculation utilizes the auxiliary basis: def2/J
   F. Weigend, Phys. Chem. Chem. Phys. 8, 1057 (2006).

================================================================================
                                        WARNINGS
                       Please study these warnings very carefully!
================================================================================

WARNING: Old DensityContainer found on disk!
         Will remove this file - 
         If you want to keep old densities, please start your calculation with a different basename. 


================================================================================
                                       INPUT FILE
================================================================================
NAME = pol_R_bare.inp
|  1> ! B3LYP D3BJ def2-SVP def2/J RIJCOSX CPCM KeepDens
|  2> %maxcore 3000
|  3> %pal nprocs 8 end
|  4> %cpcm epsilon 4.0 end
|  5> %scf MaxIter 300 end
|  6> * xyz -2 1
|  7> C     19.37411384    40.98301379    56.79247363
|  8> H     18.98738970    41.70301481    56.06860183
|  9> H     19.11637252    41.08805412    57.84692708
| 10> C     20.13023466    39.96813308    56.35121395
| 11> C     20.49809221    39.84006706    54.87597730
| 12> O     20.05607548    40.70981894    54.08825382
| 13> O     21.22218208    38.86346644    54.54721344
| 14> O     20.55512624    38.96367452    57.19354665
| 15> C     21.81584165    39.09167332    57.95415610
| 16> H     21.80121171    38.20821003    58.60663300
| 17> C     21.72269262    40.36879425    58.72393420
| 18> H     21.08157002    40.41500250    59.60673365
| 19> C     22.18567572    41.51410681    58.18139295
| 20> C     23.02584483    41.46521418    56.97854134
| 21> H     23.32273141    42.42220241    56.54730095
| 22> C     23.43449738    40.30080898    56.44378521
| 23> H     24.09800390    40.28390572    55.57442284
| 24> C     23.04195768    38.97111116    57.02500965
| 25> H     22.72317085    38.32285539    56.19469897
| 26> O     24.16758457    38.42494530    57.70910376
| 27> H     24.16585759    37.46009507    57.60358072
| 28> C     21.70124692    42.85764882    58.70845939
| 29> O     22.04278866    43.89358548    58.07845494
| 30> O     20.90951146    42.84941150    59.68380416
| 31> *
| 32> 
| 33>                          ****END OF INPUT****
================================================================================

                       ****************************
                       * Single Point Calculation *
                       ****************************

---------------------------------
CARTESIAN COORDINATES (ANGSTROEM)
---------------------------------
  C     19.374114   40.983014   56.792474
  H     18.987390   41.703015   56.068602
  H     19.116373   41.088054   57.846927
  C     20.130235   39.968133   56.351214
  C     20.498092   39.840067   54.875977
  O     20.056075   40.709819   54.088254
  O     21.222182   38.863466   54.547213
  O     20.555126   38.963675   57.193547
  C     21.815842   39.091673   57.954156
  H     21.801212   38.208210   58.606633
  C     21.722693   40.368794   58.723934
  H     21.081570   40.415002   59.606734
  C     22.185676   41.514107   58.181393
  C     23.025845   41.465214   56.978541
  H     23.322731   42.422202   56.547301
  C     23.434497   40.300809   56.443785
  H     24.098004   40.283906   55.574423
  C     23.041958   38.971111   57.025010
  H     22.723171   38.322855   56.194699
  O     24.167585   38.424945   57.709104
  H     24.165858   37.460095   57.603581
  C     21.701247   42.857649   58.708459
  O     22.042789   43.893585   58.078455
  O     20.909511   42.849411   59.683804

----------------------------
CARTESIAN COORDINATES (A.U.)
----------------------------
  NO LB      ZA    FRAG     MASS         X           Y           Z
   0 C     6.0000    0    12.011   36.611769   77.446672  107.322222
   1 H     1.0000    0     1.008   35.880967   78.807277  105.954302
   2 H     1.0000    0     1.008   36.124709   77.645170  109.314850
   3 C     6.0000    0    12.011   38.040631   75.528826  106.488362
   4 C     6.0000    0    12.011   38.735781   75.286816  103.700568
   5 O     8.0000    0    15.999   37.900490   76.930409  102.211987
   6 O     8.0000    0    15.999   40.104112   73.441308  103.079295
   7 O     8.0000    0    15.999   38.843559   73.630674  108.080140
   8 C     6.0000    0    12.011   41.225966   73.872557  109.517483
   9 H     1.0000    0     1.008   41.198320   72.203053  110.750486
  10 C     6.0000    0    12.011   41.049940   76.285965  110.972153
  11 H     1.0000    0     1.008   39.838394   76.373286  112.640402
  12 C     6.0000    0    12.011   41.924851   78.450293  109.946899
  13 C     6.0000    0    12.011   43.512541   78.357899  107.673839
  14 H     1.0000    0     1.008   44.073575   80.166345  106.858912
  15 C     6.0000    0    12.011   44.284782   76.157492  106.663296
  16 H     1.0000    0     1.008   45.538628   76.125549  105.020439
  17 C     6.0000    0    12.011   43.542990   73.644727  107.761651
  18 H     1.0000    0     1.008   42.940570   72.419701  106.192591
  19 O     8.0000    0    15.999   45.670116   72.612623  109.054402
  20 H     1.0000    0     1.008   45.666853   70.789321  108.854992
  21 C     6.0000    0    12.011   41.009413   80.989219  110.942910
  22 O     8.0000    0    15.999   41.654834   82.946856  109.752374
  23 O     8.0000    0    15.999   39.513250   80.973653  112.786044

--------------------------------
INTERNAL COORDINATES (ANGSTROEM)
--------------------------------
 C      0   0   0     0.000000000000     0.00000000     0.00000000
 H      1   0   0     1.091763441454     0.00000000     0.00000000
 H      1   2   0     1.090566887989   119.59323241     0.00000000
 C      1   2   3     1.340302822187   118.74473389   178.32251959
 C      4   1   2     1.525792664838   121.19021209     2.43118464
 O      5   4   1     1.253935964596   117.65726836   359.24461070
 O      5   4   1     1.259420734490   117.13530404   179.37334341
 O      4   1   2     1.378039996154   121.64336370   185.56923399
 C      8   4   1     1.477942412018   120.96143465   271.85943854
 H      9   8   4     1.098384051667   102.98477715   173.18463489
 C      9   8   4     1.494079293369   106.61866959    54.72863125
 H     11   9   8     1.092020265160   119.29331322    74.66318110
 C     11   9   8     1.349238755347   119.80344244   268.81928364
 C     13  11   9     1.468034951337   119.84042008   347.07401709
 H     14  13  11     1.090842054429   116.77317687   176.41689056
 C     14  13  11     1.344916538296   121.90546602   355.17990168
 H     16  14  13     1.093763023992   120.91331406   182.84712793
 C     16  14  13     1.503331486480   122.18937151     1.04068377
 H     18  16  14     1.100580034183   107.75417292   133.95928956
 O     18  16  14     1.425944526781   108.55070870   254.73536777
 H     20  18  16     0.970604997289   109.09814279   215.02807142
 C     13  11   9     1.522358508065   120.04914341   159.53840362
 O     22  13  11     1.259651194067   117.79849881   187.74008655
 O     22  13  11     1.256268407797   117.61671204     2.68281243

---------------------------
INTERNAL COORDINATES (A.U.)
---------------------------
 C      0   0   0     0.000000000000     0.00000000     0.00000000
 H      1   0   0     2.063133907375     0.00000000     0.00000000
 H      1   2   0     2.060872749023   119.59323241     0.00000000
 C      1   2   3     2.532805270454   118.74473389   178.32251959
 C      4   1   2     2.883330273690   121.19021209     2.43118464
 O      5   4   1     2.369595562560   117.65726836   359.24461070
 O      5   4   1     2.379960275568   117.13530404   179.37334341
 O      4   1   2     2.604118194322   121.64336370   185.56923399
 C      8   4   1     2.792906400421   120.96143465   271.85943854
 H      9   8   4     2.075645047517   102.98477715   173.18463489
 C      9   8   4     2.823400686830   106.61866959    54.72863125
 H     11   9   8     2.063619233844   119.29331322    74.66318110
 C     11   9   8     2.549691736879   119.80344244   268.81928364
 C     13  11   9     2.774184013051   119.84042008   347.07401709
 H     14  13  11     2.061392738234   116.77317687   176.41689056
 C     14  13  11     2.541523930360   121.90546602   355.17990168
 H     16  14  13     2.066912570755   120.91331406   182.84712793
 C     16  14  13     2.840884797948   122.18937151     1.04068377
 H     18  16  14     2.079794853067   107.75417292   133.95928956
 O     18  16  14     2.694644637780   108.55070870   254.73536777
 H     20  18  16     1.834177629091   109.09814279   215.02807142
 C     13  11   9     2.876840657888   120.04914341   159.53840362
 O     22  13  11     2.380395781053   117.79849881   187.74008655
 O     22  13  11     2.374003241433   117.61671204     2.68281243

---------------------
BASIS SET INFORMATION
---------------------
There are 3 groups of distinct atoms

 Group   1 Type C   : 7s4p1d contracted to 3s2p1d pattern {511/31/1}
 Group   2 Type H   : 4s1p contracted to 2s1p pattern {31/1}
 Group   3 Type O   : 7s4p1d contracted to 3s2p1d pattern {511/31/1}

Atom   0C    basis set group =>   1
Atom   1H    basis set group =>   2
Atom   2H    basis set group =>   2
Atom   3C    basis set group =>   1
Atom   4C    basis set group =>   1
Atom   5O    basis set group =>   3
Atom   6O    basis set group =>   3
Atom   7O    basis set group =>   3
Atom   8C    basis set group =>   1
Atom   9H    basis set group =>   2
Atom  10C    basis set group =>   1
Atom  11H    basis set group =>   2
Atom  12C    basis set group =>   1
Atom  13C    basis set group =>   1
Atom  14H    basis set group =>   2
Atom  15C    basis set group =>   1
Atom  16H    basis set group =>   2
Atom  17C    basis set group =>   1
Atom  18H    basis set group =>   2
Atom  19O    basis set group =>   3
Atom  20H    basis set group =>   2
Atom  21C    basis set group =>   1
Atom  22O    basis set group =>   3
Atom  23O    basis set group =>   3
---------------------------------
AUXILIARY/J BASIS SET INFORMATION
---------------------------------
There are 3 groups of distinct atoms

 Group   1 Type C   : 12s5p4d2f1g contracted to 6s4p3d1f1g pattern {711111/2111/211/2/1}
 Group   2 Type H   : 5s2p1d contracted to 3s1p1d pattern {311/2/1}
 Group   3 Type O   : 12s5p4d2f1g contracted to 6s4p3d1f1g pattern {711111/2111/211/2/1}

Atom   0C    basis set group =>   1
Atom   1H    basis set group =>   2
Atom   2H    basis set group =>   2
Atom   3C    basis set group =>   1
Atom   4C    basis set group =>   1
Atom   5O    basis set group =>   3
Atom   6O    basis set group =>   3
Atom   7O    basis set group =>   3
Atom   8C    basis set group =>   1
Atom   9H    basis set group =>   2
Atom  10C    basis set group =>   1
Atom  11H    basis set group =>   2
Atom  12C    basis set group =>   1
Atom  13C    basis set group =>   1
Atom  14H    basis set group =>   2
Atom  15C    basis set group =>   1
Atom  16H    basis set group =>   2
Atom  17C    basis set group =>   1
Atom  18H    basis set group =>   2
Atom  19O    basis set group =>   3
Atom  20H    basis set group =>   2
Atom  21C    basis set group =>   1
Atom  22O    basis set group =>   3
Atom  23O    basis set group =>   3

Checking for AutoStart:
The File: pol_R_bare.gbw exists
Trying to determine its content:
     ... Fine, the file contains calculation information
     ... Fine, the calculation information was read
     ... Fine, the file contains a basis set
     ... Fine, the basis set was read
     ... Fine, the file contains a geometry
     ... Fine, the geometry was read
     ... Fine, the file contains a set of orbitals
     ... Fine, the orbitals can be read
     => possible old guess file was deleted
     => GBW file was renamed to GES file
     => GES file is set as startup file
     => Guess is set to MORead
     ... now leaving AutoStart



           ************************************************************
           *        Program running with 8 parallel MPI-processes     *
           *              working on a common directory               *
           ************************************************************
------------------------------------------------------------------------------
                             ORCA STARTUP CALCULATIONS
                           -- RI-GTO INTEGRALS CHOSEN --
------------------------------------------------------------------------------
------------------------------------------------------------------------------
                   ___                                                        
                  /   \      - P O W E R E D   B Y -                         
                 /     \                                                     
                 |  |  |   _    _      __       _____    __    __             
                 |  |  |  | |  | |    /  \     |  _  \  |  |  /  |          
                  \  \/   | |  | |   /    \    | | | |  |  | /  /          
                 / \  \   | |__| |  /  /\  \   | |_| |  |  |/  /          
                |  |  |   |  __  | /  /__\  \  |    /   |      \           
                |  |  |   | |  | | |   __   |  |    \   |  |\   \          
                \     /   | |  | | |  |  |  |  | |\  \  |  | \   \       
                 \___/    |_|  |_| |__|  |__|  |_| \__\ |__|  \__/        
                                                                              
                      - O R C A' S   B I G   F R I E N D -                    
                                      &                                       
                       - I N T E G R A L  F E E D E R -                       
                                                                              
 v1 FN, 2020, v2 2021, v3 2022-2024                                           
------------------------------------------------------------------------------


----------------------
SHARK INTEGRAL PACKAGE
----------------------

Number of atoms                             ...     24
Number of basis functions                   ...    264
Number of shells                            ...    120
Maximum angular momentum                    ...      2
Integral batch strategy                     ... SHARK/LIBINT Hybrid
RI-J (if used) integral strategy            ... SPLIT-RIJ (Revised 2003 algorithm where possible)
Printlevel                                  ...      1
Contraction scheme used                     ... SEGMENTED contraction
Prescreening option                         ... SCHWARTZ
   Thresh                                   ... 1.000e-10
   Tcut                                     ... 1.000e-11
   Tpresel                                  ... 1.000e-11 
Coulomb Range Separation                    ... NOT USED
Exchange Range Separation                   ... NOT USED
Multipole approximations                    ... NOT USED
Finite Nucleus Model                        ... NOT USED
CABS basis                                  ... NOT available
Auxiliary Coulomb fitting basis             ... AVAILABLE
   # of basis functions in Aux-J            ...    872
   # of shells in Aux-J                     ...    280
   Maximum angular momentum in Aux-J        ...      4
Auxiliary J/K fitting basis                 ... NOT available
Auxiliary Correlation fitting basis         ... NOT available
Auxiliary 'external' fitting basis          ... NOT available

Checking pre-screening integrals            ... done (  0.0 sec) Dimension = 120
Check shell pair data                       ... done (  0.0 sec)
Shell pair information
Shell pair cut-off parameter TPreSel        ...   1.0e-11
Total number of shell pairs                 ...      7260
Shell pairs after pre-screening             ...      6258
Total number of primitive shell pairs       ...     27260
Primitive shell pairs kept                  ...     15525
          la=0 lb=0:   1775 shell pairs
          la=1 lb=0:   2252 shell pairs
          la=1 lb=1:    747 shell pairs
          la=2 lb=0:    832 shell pairs
          la=2 lb=1:    548 shell pairs
          la=2 lb=2:    104 shell pairs

Calculating one electron integrals          ... done (  0.0 sec)
Calculating RI/J V-Matrix + Cholesky decomp.... done (  0.5 sec)
Calculating Nuclear repulsion               ... done (  0.0 sec) ENN=   1118.531609957280 Eh

Diagonalization of the overlap matrix:
Smallest eigenvalue                        ... 5.331e-04
Time for diagonalization                   ...    0.018 sec
Threshold for overlap eigenvalues          ... 1.000e-07
Number of eigenvalues below threshold      ... 0
Time for construction of square roots      ...    0.029 sec
Total time needed                          ...    0.075 sec

-------------------
DFT GRID GENERATION
-------------------

General Integration Accuracy     IntAcc      ... 4.388
Radial Grid Type                 RadialGrid  ... OptM3 with GC (2021)
Angular Grid (max. ang.)         AngularGrid ... 4 (Lebedev-302)
Angular grid pruning method      GridPruning ... 4 (adaptive)
Weight generation scheme         WeightScheme... mBecke (2022)
Basis function cutoff            BFCut       ... 1.0000e-10
Integration weight cutoff        WCut        ... 1.0000e-14
Partially contracted basis set               ... off
Rotationally invariant grid construction     ... off
Angular grids for H and He will be reduced by one unit

Total number of grid points                  ...   121631
Total number of batches                      ...     1911
Average number of points per batch           ...       63
Average number of grid points per atom       ...     5068

--------------------
COSX GRID GENERATION
--------------------

GRIDX 1
-------
General Integration Accuracy     IntAcc      ... 3.816
Radial Grid Type                 RadialGrid  ... OptM3 with GC (2021)
Angular Grid (max. ang.)         AngularGrid ... 1 (Lebedev-50)
Angular grid pruning method      GridPruning ... 4 (adaptive)
Weight generation scheme         WeightScheme... mBecke (2022)
Basis function cutoff            BFCut       ... 1.0000e-10
Integration weight cutoff        WCut        ... 1.0000e-14
Partially contracted basis set               ... on
Rotationally invariant grid construction     ... off
Angular grids for H and He will be reduced by one unit

Total number of grid points                  ...    15391
Total number of batches                      ...      135
Average number of points per batch           ...      114
Average number of grid points per atom       ...      641
UseSFitting                                  ... on

GRIDX 2
-------
General Integration Accuracy     IntAcc      ... 4.020
Radial Grid Type                 RadialGrid  ... OptM3 with GC (2021)
Angular Grid (max. ang.)         AngularGrid ... 2 (Lebedev-110)
Angular grid pruning method      GridPruning ... 4 (adaptive)
Weight generation scheme         WeightScheme... mBecke (2022)
Basis function cutoff            BFCut       ... 1.0000e-10
Integration weight cutoff        WCut        ... 1.0000e-14
Partially contracted basis set               ... on
Rotationally invariant grid construction     ... off
Angular grids for H and He will be reduced by one unit

Total number of grid points                  ...    34402
Total number of batches                      ...      279
Average number of points per batch           ...      123
Average number of grid points per atom       ...     1433
UseSFitting                                  ... on

GRIDX 3
-------
General Integration Accuracy     IntAcc      ... 4.338
Radial Grid Type                 RadialGrid  ... OptM3 with GC (2021)
Angular Grid (max. ang.)         AngularGrid ... 3 (Lebedev-194)
Angular grid pruning method      GridPruning ... 4 (adaptive)
Weight generation scheme         WeightScheme... mBecke (2022)
Basis function cutoff            BFCut       ... 1.0000e-10
Integration weight cutoff        WCut        ... 1.0000e-14
Partially contracted basis set               ... on
Rotationally invariant grid construction     ... off
Angular grids for H and He will be reduced by one unit

Total number of grid points                  ...    75578
Total number of batches                      ...      602
Average number of points per batch           ...      125
Average number of grid points per atom       ...     3149
UseSFitting                                  ... on
Initializing property integral containers    ... done (  0.1 sec)

SHARK setup successfully completed in   5.5 seconds

Maximum memory used throughout the entire STARTUP-calculation: 33.8 MB


           ************************************************************
           *        Program running with 8 parallel MPI-processes     *
           *              working on a common directory               *
           ************************************************************
-------------------------------------------------------------------------------
                                 ORCA GUESS
                   Start orbitals & Density for SCF / CASSCF
-------------------------------------------------------------------------------

------------
SCF SETTINGS
------------
Hamiltonian:
 Density Functional     Method          .... DFT(GTOs)
 Exchange Functional    Exchange        .... B88
   X-Alpha parameter    XAlpha          ....  0.666667
   Becke's b parameter  XBeta           ....  0.004200
 Correlation Functional Correlation     .... LYP
 LDA part of GGA corr.  LDAOpt          .... VWN-5
 Gradients option       PostSCFGGA      .... off
 Hybrid DFT is turned on
   Fraction HF Exchange ScalHFX         ....  0.200000
   Scaling of DF-GGA-X  ScalDFX         ....  0.720000
   Scaling of DF-GGA-C  ScalDFC         ....  0.810000
   Scaling of DF-LDA-C  ScalLDAC        ....  1.000000
   Perturbative correction              ....  0.000000
   NL short-range parameter             ....  4.800000
 RI-approximation to the Coulomb term is turned on
   Number of AuxJ basis functions       .... 872
   RIJ-COSX (HFX calculated with COS-X)).... on


General Settings:
 Integral files         IntName         .... pol_R_bare
 Hartree-Fock type      HFTyp           .... RHF
 Total Charge           Charge          ....   -2
 Multiplicity           Mult            ....    1
 Number of Electrons    NEL             ....  118
 Basis Dimension        Dim             ....  264
 Nuclear Repulsion      ENuc            ....   1118.5316099573 Eh

Convergence Acceleration:
 AO-DIIS                CNVDIIS         .... on
   Start iteration      DIISMaxIt       ....    12
   Startup error        DIISStart       ....  0.200000
   # of expansion vecs  DIISMaxEq       ....     5
   Bias factor          DIISBfac        ....   1.050
   Max. coefficient     DIISMaxC        ....  10.000
 MO-DIIS                CNVKDIIS        .... off
 Trust-Rad. Augm. Hess. CNVTRAH         .... auto
   Auto Start mean grad. ratio tolernc. ....  1.125000
   Auto Start start iteration           ....     1
   Auto Start num. interpolation iter.  ....    10
   Max. Number of Micro iterations      ....    24
   Max. Number of Macro iterations      .... Maxiter - #DIIS iter
   Number of Davidson start vectors     ....     2
   Converg. threshold    (grad. norm)   ....   5.000e-05
   Grad. Scal. Fac. for Micro threshold ....   0.100
   Minimum threshold for Micro iter.    ....   1.000e-02
   NR start threshold (gradient norm)   ....   1.000e-04
   Initial trust radius                 ....   0.400
   Minimum AH scaling param. (alpha)    ....   1.000
   Maximum AH scaling param. (alpha)    .... 1000.000
   Quad. conv. algorithm                .... NR
   White noise on init. David. guess    .... on
   Maximum white noise                  ....   0.010
   Pseudo random numbers                .... off
   Inactive MOs                         .... canonical
   Orbital update algorithm             .... Taylor
   Preconditioner                       .... Diag
   Full preconditioner red. dimension   ....   250
 SOSCF                  CNVSOSCF        .... on
   Start iteration      SOSCFMaxIt      ....   150
   Startup grad/error   SOSCFStart      ....  0.003300
   Hessian update       SOSCFHessUp     .... L-BFGS
 Level Shifting         CNVShift        .... on
   Level shift para.    LevelShift      ....    0.2500
   Turn off err/grad.   ShiftErr        ....    0.0010
 Zerner damping         CNVZerner       .... off
 Static damping         CNVDamp         .... on
   Fraction old density DampFac         ....    0.7000
   Max. Damping (<1)    DampMax         ....    0.9800
   Min. Damping (>=0)   DampMin         ....    0.0000
   Turn off err/grad.   DampErr         ....    0.1000

SCF Procedure:
 Maximum # iterations   MaxIter         ....   300
 SCF integral mode      SCFMode         .... Direct
   Integral package                     .... SHARK and LIBINT hybrid scheme
 Reset frequency        DirectResetFreq ....    20
 Integral Threshold     Thresh          ....  1.000e-10 Eh
 Primitive CutOff       TCut            ....  1.000e-11 Eh

Convergence Tolerance:
 Convergence Check Mode ConvCheckMode   .... Total+1el-Energy
 Convergence forced     ConvForced      .... 0
 Energy Change          TolE            ....  1.000e-06 Eh
 1-El. energy change                    ....  1.000e-03 Eh
 Orbital Gradient       TolG            ....  5.000e-05
 Orbital Rotation angle TolX            ....  5.000e-05
 DIIS Error             TolErr          ....  1.000e-06

---------------------
INITIAL GUESS: MOREAD
---------------------
Guess MOs are being read from file: pol_R_bare.ges
Input Geometry matches current geometry (good)
Input basis set matches current basis set (good)
Occupation numbers will be reassigned to an Aufbau configuration
MOs were renormalized
MOs were reorthogonalized (Cholesky)
                      ------------------
                      INITIAL GUESS DONE (   0.1 sec)
                      ------------------
             **** ENERGY FILE WAS UPDATED (pol_R_bare.en.tmp) ****
Finished Guess after   1.3 sec
Maximum memory used throughout the entire GUESS-calculation: 14.9 MB


           ************************************************************
           *        Program running with 8 parallel MPI-processes     *
           *              working on a common directory               *
           ************************************************************

-------------------------------------------------------------------------------------------
                                      ORCA LEAN-SCF
                              memory conserving SCF solver
-------------------------------------------------------------------------------------------

--------------------
CPCM SOLVATION MODEL
--------------------
CPCM parameters:
  Epsilon                                         ...       4.0000
  Refrac                                          ...       1.3300
  Rsolv                                           ...       1.3000
  Surface type                                    ... GAUSSIAN VDW
  Discretization scheme                           ... Constant charge density
    Threshold for H atoms                         ...       5.0000 (charges/Ang^2)
    Threshold for non-H atoms                     ...       5.0000 (charges/Ang^2)
  Epsilon function type                           ...         CPCM
Solvent:                                          ... CUSTOM
Radii:
  Scheme                                          ... Element-dependent radii
  Radius for C  used is    3.8550 Bohr (=   2.0400 Ang.)
  Radius for H  used is    2.4944 Bohr (=   1.3200 Ang.)
  Radius for O  used is    3.4469 Bohr (=   1.8240 Ang.)
Calculating surface                               ...        done! (  0.0s)
Cavity surface points                             ...         2096
Cavity Volume                                     ...    1688.9442
Cavity Surface-area                               ...     856.8559
Calculating surface distance matrix               ...        done! (  0.1s)
Performing Cholesky decomposition & store         ...        done! (  0.6s)
Overall time for CPCM initialization              ...                 0.6s

----------------------------------------D-I-I-S--------------------------------------------
Iteration    Energy (Eh)           Delta-E    RMSDP     MaxDP     DIISErr   Damp  Time(sec)
-------------------------------------------------------------------------------------------
               ***  Starting incremental Fock matrix formation  ***
                              *** Initializing SOSCF ***
---------------------------------------S-O-S-C-F--------------------------------------
Iteration    Energy (Eh)           Delta-E    RMSDP     MaxDP     MaxGrad    Time(sec)
--------------------------------------------------------------------------------------
    1    -836.3126503999128545     0.00e+00  3.93e-07  1.34e-05  1.09e-06     4.7
               *** Restarting incremental Fock matrix formation ***
    2    -836.3126503996402334     2.73e-10  5.97e-07  2.29e-05  2.96e-06     4.6
                  *** Gradient check signals convergence ***

               *****************************************************
               *                     SUCCESS                       *
               *           SCF CONVERGED AFTER   2 CYCLES          *
               *****************************************************

Recomputing exchange energy using gridx3       ... done (    5.681 sec)
Old exchange energy                            :    -20.893197423 Eh
New exchange energy                            :    -20.893187102 Eh
Exchange energy change after final integration :      0.000010321 Eh
Total energy after final integration           :   -836.312640078 Eh
             **** ENERGY FILE WAS UPDATED (pol_R_bare.en.tmp) ****

----------------
TOTAL SCF ENERGY
----------------

Total Energy       :       -836.31264007836148 Eh          -22757.22389 eV

Components:
Nuclear Repulsion  :       1118.53160995727967 Eh           30436.79248 eV
Electronic Energy  :      -1954.61823398216688 Eh          -53187.86617 eV
One Electron Energy:      -3402.76535737737504 Eh          -92593.95276 eV
Two Electron Energy:       1448.14712339520815 Eh           39406.08659 eV
CPCM Dielectric    :         -0.22602637475313 Eh              -6.15049 eV

Virial components:
Potential Energy   :      -1665.76966209544116 Eh          -45327.89693 eV
Kinetic Energy     :        829.45702201707968 Eh           22570.67304 eV
Virial Ratio       :          2.00826518780275

DFT components:
N(Alpha)           :       59.000047906559 electrons
N(Beta)            :       59.000047906559 electrons
N(Total)           :      118.000095813117 electrons
E(X)               :      -83.146844915587 Eh       
E(C)               :       -4.848367984430 Eh       
E(XC)              :      -87.995212900017 Eh       

CPCM Solvation Model Properties:
Surface-charge          :          1.98248532733394
Corrected charge        :          2.00000000000000
Outlying charge corr.   :          0.00001472407506 Eh               0.00040 eV
Free-energy (cav+disp)  :  This term is not implemented in the current solvation scheme

---------------
SCF CONVERGENCE
---------------

  Last Energy change         ...   -2.7262e-10  Tolerance :   1.0000e-06
  Last MAX-Density change    ...    2.2914e-05  Tolerance :   1.0000e-05
  Last RMS-Density change    ...    5.9665e-07  Tolerance :   1.0000e-06
  Last DIIS Error            ...    1.0392e-05  Tolerance :   1.0000e-06
  Last Orbital Gradient      ...    2.9644e-06  Tolerance :   5.0000e-05
  Last Orbital Rotation      ...    7.9116e-06  Tolerance :   5.0000e-05


----------------
ORBITAL ENERGIES
----------------

  NO   OCC          E(Eh)            E(eV) 
   0   2.0000     -19.069382      -518.9043 
   1   2.0000     -19.065770      -518.8060 
   2   2.0000     -18.970432      -516.2117 
   3   2.0000     -18.969530      -516.1871 
   4   2.0000     -18.967644      -516.1358 
   5   2.0000     -18.967191      -516.1235 
   6   2.0000     -10.169009      -276.7128 
   7   2.0000     -10.168981      -276.7120 
   8   2.0000     -10.167634      -276.6754 
   9   2.0000     -10.159986      -276.4673 
  10   2.0000     -10.145466      -276.0722 
  11   2.0000     -10.112413      -275.1727 
  12   2.0000     -10.111614      -275.1510 
  13   2.0000     -10.105176      -274.9758 
  14   2.0000     -10.103958      -274.9427 
  15   2.0000     -10.095063      -274.7006 
  16   2.0000      -0.953165       -25.9369 
  17   2.0000      -0.940720       -25.5983 
  18   2.0000      -0.908926       -24.7331 
  19   2.0000      -0.905266       -24.6335 
  20   2.0000      -0.815837       -22.2000 
  21   2.0000      -0.814996       -22.1772 
  22   2.0000      -0.750226       -20.4147 
  23   2.0000      -0.681203       -18.5365 
  24   2.0000      -0.662290       -18.0218 
  25   2.0000      -0.634197       -17.2574 
  26   2.0000      -0.553929       -15.0732 
  27   2.0000      -0.524865       -14.2823 
  28   2.0000      -0.504633       -13.7318 
  29   2.0000      -0.467020       -12.7083 
  30   2.0000      -0.451810       -12.2944 
  31   2.0000      -0.426662       -11.6101 
  32   2.0000      -0.408710       -11.1216 
  33   2.0000      -0.393899       -10.7185 
  34   2.0000      -0.374108       -10.1800 
  35   2.0000      -0.365997        -9.9593 
  36   2.0000      -0.352631        -9.5956 
  37   2.0000      -0.350893        -9.5483 
  38   2.0000      -0.340756        -9.2724 
  39   2.0000      -0.322506        -8.7758 
  40   2.0000      -0.310668        -8.4537 
  41   2.0000      -0.306405        -8.3377 
  42   2.0000      -0.301250        -8.1974 
  43   2.0000      -0.299818        -8.1585 
  44   2.0000      -0.295721        -8.0470 
  45   2.0000      -0.276298        -7.5184 
  46   2.0000      -0.270501        -7.3607 
  47   2.0000      -0.254542        -6.9264 
  48   2.0000      -0.240357        -6.5404 
  49   2.0000      -0.224364        -6.1052 
  50   2.0000      -0.196918        -5.3584 
  51   2.0000      -0.167982        -4.5710 
  52   2.0000      -0.155762        -4.2385 
  53   2.0000      -0.148453        -4.0396 
  54   2.0000      -0.147801        -4.0219 
  55   2.0000      -0.144150        -3.9225 
  56   2.0000      -0.143167        -3.8958 
  57   2.0000      -0.128542        -3.4978 
  58   2.0000      -0.126806        -3.4506 
  59   0.0000       0.024403         0.6640 
  60   0.0000       0.070923         1.9299 
  61   0.0000       0.106061         2.8861 
  62   0.0000       0.129469         3.5230 
  63   0.0000       0.153110         4.1663 
  64   0.0000       0.163399         4.4463 
  65   0.0000       0.179966         4.8971 
  66   0.0000       0.191944         5.2231 
  67   0.0000       0.202083         5.4990 
  68   0.0000       0.215913         5.8753 
  69   0.0000       0.230536         6.2732 
*Only the first 10 virtual orbitals were printed.

                    ********************************
                    * MULLIKEN POPULATION ANALYSIS *
                    ********************************

-----------------------
MULLIKEN ATOMIC CHARGES
-----------------------
   0 C :   -0.013177
   1 H :   -0.009175
   2 H :   -0.008146
   3 C :    0.020589
   4 C :    0.069211
   5 O :   -0.423370
   6 O :   -0.427442
   7 O :   -0.387193
   8 C :    0.233137
   9 H :   -0.041047
  10 C :   -0.095358
  11 H :   -0.037252
  12 C :   -0.029979
  13 C :    0.009214
  14 H :   -0.043989
  15 C :   -0.051971
  16 H :   -0.027897
  17 C :    0.247469
  18 H :   -0.013698
  19 O :   -0.346681
  20 H :    0.177189
  21 C :    0.056856
  22 O :   -0.425663
  23 O :   -0.431627
Sum of atomic charges:   -2.0000000

--------------------------------
MULLIKEN REDUCED ORBITAL CHARGES
--------------------------------
  0 C s       :     3.101016  s :     3.101016
      pz      :     0.859488  p :     2.887638
      px      :     1.016021
      py      :     1.012130
      dz2     :     0.006069  d :     0.024523
      dxz     :     0.003590
      dyz     :     0.006193
      dx2y2   :     0.004588
      dxy     :     0.004083

  1 H s       :     0.984757  s :     0.984757
      pz      :     0.010100  p :     0.024418
      px      :     0.005738
      py      :     0.008579

  2 H s       :     0.984585  s :     0.984585
      pz      :     0.014090  p :     0.023561
      px      :     0.005117
      py      :     0.004353

  3 C s       :     3.156594  s :     3.156594
      pz      :     0.951615  p :     2.754199
      px      :     0.947389
      py      :     0.855195
      dz2     :     0.017185  d :     0.068617
      dxz     :     0.009475
      dyz     :     0.018708
      dx2y2   :     0.012316
      dxy     :     0.010933

  4 C s       :     3.036743  s :     3.036743
      pz      :     0.968019  p :     2.754797
      px      :     0.870937
      py      :     0.915841
      dz2     :     0.033009  d :     0.139249
      dxz     :     0.020049
      dyz     :     0.031316
      dx2y2   :     0.030086
      dxy     :     0.024789

  5 O s       :     3.707433  s :     3.707433
      pz      :     1.620575  p :     4.701936
      px      :     1.578468
      py      :     1.502893
      dz2     :     0.002224  d :     0.014001
      dxz     :     0.002441
      dyz     :     0.004495
      dx2y2   :     0.002529
      dxy     :     0.002312

  6 O s       :     3.728128  s :     3.728128
      pz      :     1.767313  p :     4.685771
      px      :     1.462900
      py      :     1.455558
      dz2     :     0.001709  d :     0.013543
      dxz     :     0.001401
      dyz     :     0.002421
      dx2y2   :     0.003671
      dxy     :     0.004341

  7 O s       :     3.744249  s :     3.744249
      pz      :     1.569967  p :     4.628776
      px      :     1.472076
      py      :     1.586733
      dz2     :     0.001863  d :     0.014168
      dxz     :     0.002340
      dyz     :     0.003733
      dx2y2   :     0.003771
      dxy     :     0.002462

  8 C s       :     2.995923  s :     2.995923
      pz      :     0.928921  p :     2.707768
      px      :     0.784247
      py      :     0.994600
      dz2     :     0.007228  d :     0.063172
      dxz     :     0.017370
      dyz     :     0.013063
      dx2y2   :     0.017199
      dxy     :     0.008312

  9 H s       :     1.020907  s :     1.020907
      pz      :     0.007129  p :     0.020140
      px      :     0.002519
      py      :     0.010492

 10 C s       :     3.231092  s :     3.231092
      pz      :     0.873194  p :     2.831426
      px      :     0.961423
      py      :     0.996808
      dz2     :     0.005356  d :     0.032840
      dxz     :     0.004381
      dyz     :     0.009784
      dx2y2   :     0.007824
      dxy     :     0.005495

 11 H s       :     1.014120  s :     1.014120
      pz      :     0.011126  p :     0.023132
      px      :     0.008301
      py      :     0.003705

 12 C s       :     3.160958  s :     3.160958
      pz      :     0.932406  p :     2.829517
      px      :     0.936309
      py      :     0.960801
      dz2     :     0.007976  d :     0.039504
      dxz     :     0.005809
      dyz     :     0.009648
      dx2y2   :     0.008224
      dxy     :     0.007848

 13 C s       :     3.214183  s :     3.214183
      pz      :     0.967493  p :     2.741792
      px      :     0.961597
      py      :     0.812702
      dz2     :     0.007238  d :     0.034812
      dxz     :     0.004915
      dyz     :     0.009151
      dx2y2   :     0.006886
      dxy     :     0.006622

 14 H s       :     1.020836  s :     1.020836
      pz      :     0.005192  p :     0.023153
      px      :     0.004706
      py      :     0.013255

 15 C s       :     3.182533  s :     3.182533
      pz      :     0.896839  p :     2.835868
      px      :     0.974779
      py      :     0.964250
      dz2     :     0.005295  d :     0.033570
      dxz     :     0.004527
      dyz     :     0.008997
      dx2y2   :     0.008091
      dxy     :     0.006660

 16 H s       :     1.005224  s :     1.005224
      pz      :     0.011048  p :     0.022673
      px      :     0.008357
      py      :     0.003267

 17 C s       :     2.923136  s :     2.923136
      pz      :     0.947899  p :     2.761650
      px      :     0.801549
      py      :     1.012203
      dz2     :     0.008505  d :     0.067745
      dxz     :     0.017905
      dyz     :     0.012426
      dx2y2   :     0.015087
      dxy     :     0.013822

 18 H s       :     0.990488  s :     0.990488
      pz      :     0.011561  p :     0.023210
      px      :     0.005145
      py      :     0.006504

 19 O s       :     3.734860  s :     3.734860
      pz      :     1.768563  p :     4.599760
      px      :     1.582239
      py      :     1.248959
      dz2     :     0.001909  d :     0.012061
      dxz     :     0.002869
      dyz     :     0.001215
      dx2y2   :     0.004710
      dxy     :     0.001359

 20 H s       :     0.756071  s :     0.756071
      pz      :     0.017144  p :     0.066740
      px      :     0.014774
      py      :     0.034821

 21 C s       :     3.031478  s :     3.031478
      pz      :     0.918405  p :     2.773169
      px      :     0.891357
      py      :     0.963408
      dz2     :     0.032583  d :     0.138497
      dxz     :     0.020237
      dyz     :     0.034257
      dx2y2   :     0.024905
      dxy     :     0.026515

 22 O s       :     3.717832  s :     3.717832
      pz      :     1.578229  p :     4.694140
      px      :     1.613615
      py      :     1.502296
      dz2     :     0.001987  d :     0.013691
      dxz     :     0.001024
      dyz     :     0.004483
      dx2y2   :     0.003026
      dxy     :     0.003170

 23 O s       :     3.715473  s :     3.715473
      pz      :     1.446391  p :     4.702328
      px      :     1.467458
      py      :     1.788479
      dz2     :     0.004026  d :     0.013827
      dxz     :     0.005052
      dyz     :     0.001676
      dx2y2   :     0.001909
      dxy     :     0.001163



                     *******************************
                     * LOEWDIN POPULATION ANALYSIS *
                     *******************************

----------------------
LOEWDIN ATOMIC CHARGES
----------------------
   0 C :   -0.086208
   1 H :    0.016198
   2 H :    0.011499
   3 C :   -0.015727
   4 C :   -0.057857
   5 O :   -0.397593
   6 O :   -0.391518
   7 O :   -0.162975
   8 C :    0.080685
   9 H :    0.012485
  10 C :   -0.041358
  11 H :    0.008297
  12 C :   -0.070896
  13 C :   -0.029649
  14 H :    0.015130
  15 C :   -0.040503
  16 H :    0.014892
  17 C :    0.048335
  18 H :    0.010019
  19 O :   -0.162158
  20 H :    0.083129
  21 C :   -0.043871
  22 O :   -0.397016
  23 O :   -0.403339

-------------------------------
LOEWDIN REDUCED ORBITAL CHARGES
-------------------------------
  0 C s       :     2.892844  s :     2.892844
      pz      :     1.037688  p :     3.126411
      px      :     1.031734
      py      :     1.056989
      dz2     :     0.016935  d :     0.066953
      dxz     :     0.010304
      dyz     :     0.018087
      dx2y2   :     0.009616
      dxy     :     0.012010

  1 H s       :     0.911625  s :     0.911625
      pz      :     0.029464  p :     0.072177
      px      :     0.017527
      py      :     0.025187

  2 H s       :     0.917957  s :     0.917957
      pz      :     0.041552  p :     0.070544
      px      :     0.015781
      py      :     0.013211

  3 C s       :     2.898674  s :     2.898674
      pz      :     1.003363  p :     2.953090
      px      :     0.983587
      py      :     0.966140
      dz2     :     0.043730  d :     0.163963
      dxz     :     0.021373
      dyz     :     0.044454
      dx2y2   :     0.027039
      dxy     :     0.027366

  4 C s       :     2.862520  s :     2.862520
      pz      :     1.010465  p :     2.870995
      px      :     0.896210
      py      :     0.964320
      dz2     :     0.082291  d :     0.324342
      dxz     :     0.045272
      dyz     :     0.073320
      dx2y2   :     0.062334
      dxy     :     0.061125

  5 O s       :     3.566137  s :     3.566137
      pz      :     1.655939  p :     4.806443
      px      :     1.590427
      py      :     1.560077
      dz2     :     0.003566  d :     0.025013
      dxz     :     0.003914
      dyz     :     0.009269
      dx2y2   :     0.003931
      dxy     :     0.004333

  6 O s       :     3.567551  s :     3.567551
      pz      :     1.772362  p :     4.799508
      px      :     1.504453
      py      :     1.522693
      dz2     :     0.003177  d :     0.024460
      dxz     :     0.002559
      dyz     :     0.004359
      dx2y2   :     0.005153
      dxy     :     0.009211

  7 O s       :     3.463791  s :     3.463791
      pz      :     1.581241  p :     4.672285
      px      :     1.485482
      py      :     1.605562
      dz2     :     0.003441  d :     0.026900
      dxz     :     0.005164
      dyz     :     0.007088
      dx2y2   :     0.007015
      dxy     :     0.004191

  8 C s       :     2.863549  s :     2.863549
      pz      :     0.976627  p :     2.909534
      px      :     0.872867
      py      :     1.060039
      dz2     :     0.013657  d :     0.146232
      dxz     :     0.040854
      dyz     :     0.033516
      dx2y2   :     0.042320
      dxy     :     0.015885

  9 H s       :     0.923415  s :     0.923415
      pz      :     0.023243  p :     0.064100
      px      :     0.009134
      py      :     0.031723

 10 C s       :     2.880155  s :     2.880155
      pz      :     1.024576  p :     3.073990
      px      :     0.996652
      py      :     1.052763
      dz2     :     0.013693  d :     0.087212
      dxz     :     0.011524
      dyz     :     0.026941
      dx2y2   :     0.021547
      dxy     :     0.013507

 11 H s       :     0.918335  s :     0.918335
      pz      :     0.034177  p :     0.073368
      px      :     0.025735
      py      :     0.013456

 12 C s       :     2.892537  s :     2.892537
      pz      :     1.010468  p :     3.073704
      px      :     0.976235
      py      :     1.087001
      dz2     :     0.020809  d :     0.104655
      dxz     :     0.015330
      dyz     :     0.025518
      dx2y2   :     0.022537
      dxy     :     0.020460

 13 C s       :     2.870037  s :     2.870037
      pz      :     1.012847  p :     3.068117
      px      :     0.988663
      py      :     1.066607
      dz2     :     0.018709  d :     0.091495
      dxz     :     0.012632
      dyz     :     0.024728
      dx2y2   :     0.019137
      dxy     :     0.016289

 14 H s       :     0.914207  s :     0.914207
      pz      :     0.016631  p :     0.070663
      px      :     0.015153
      py      :     0.038879

 15 C s       :     2.880154  s :     2.880154
      pz      :     1.015056  p :     3.073472
      px      :     0.996416
      py      :     1.062000
      dz2     :     0.013264  d :     0.086877
      dxz     :     0.011294
      dyz     :     0.023642
      dx2y2   :     0.021933
      dxy     :     0.016744

 16 H s       :     0.916560  s :     0.916560
      pz      :     0.032113  p :     0.068548
      px      :     0.024824
      py      :     0.011611

 17 C s       :     2.845570  s :     2.845570
      pz      :     1.008538  p :     2.949940
      px      :     0.910141
      py      :     1.031261
      dz2     :     0.017571  d :     0.156155
      dxz     :     0.043917
      dyz     :     0.030246
      dx2y2   :     0.036202
      dxy     :     0.028219

 18 H s       :     0.914505  s :     0.914505
      pz      :     0.037194  p :     0.075476
      px      :     0.016589
      py      :     0.021692

 19 O s       :     3.452769  s :     3.452769
      pz      :     1.761554  p :     4.686432
      px      :     1.592184
      py      :     1.332694
      dz2     :     0.003542  d :     0.022957
      dxz     :     0.004603
      dyz     :     0.001885
      dx2y2   :     0.010298
      dxy     :     0.002628

 20 H s       :     0.738779  s :     0.738779
      pz      :     0.047077  p :     0.178092
      px      :     0.040148
      py      :     0.090867

 21 C s       :     2.855442  s :     2.855442
      pz      :     0.952164  p :     2.867084
      px      :     0.909647
      py      :     1.005273
      dz2     :     0.069605  d :     0.321345
      dxz     :     0.049246
      dyz     :     0.084367
      dx2y2   :     0.057880
      dxy     :     0.060248

 22 O s       :     3.570906  s :     3.570906
      pz      :     1.611963  p :     4.801630
      px      :     1.620745
      py      :     1.568922
      dz2     :     0.003031  d :     0.024480
      dxz     :     0.001909
      dyz     :     0.008668
      dx2y2   :     0.005980
      dxy     :     0.004892

 23 O s       :     3.567285  s :     3.567285
      pz      :     1.503529  p :     4.811302
      px      :     1.512467
      py      :     1.795305
      dz2     :     0.006124  d :     0.024752
      dxz     :     0.010860
      dyz     :     0.002761
      dx2y2   :     0.003124
      dxy     :     0.001883



                      *****************************
                      * MAYER POPULATION ANALYSIS *
                      *****************************

  NA   - Mulliken gross atomic population
  ZA   - Total nuclear charge
  QA   - Mulliken gross atomic charge
  VA   - Mayer's total valence
  BVA  - Mayer's bonded valence
  FA   - Mayer's free valence

  ATOM       NA         ZA         QA         VA         BVA        FA
  0 C      6.0132     6.0000    -0.0132     3.8930     3.8930    -0.0000
  1 H      1.0092     1.0000    -0.0092     1.0206     1.0206    -0.0000
  2 H      1.0081     1.0000    -0.0081     1.0043     1.0043    -0.0000
  3 C      5.9794     6.0000     0.0206     3.9002     3.9002     0.0000
  4 C      5.9308     6.0000     0.0692     4.5322     4.5322     0.0000
  5 O      8.4234     8.0000    -0.4234     2.0778     2.0778     0.0000
  6 O      8.4274     8.0000    -0.4274     2.0566     2.0566     0.0000
  7 O      8.3872     8.0000    -0.3872     2.0759     2.0759     0.0000
  8 C      5.7669     6.0000     0.2331     3.8620     3.8620     0.0000
  9 H      1.0410     1.0000    -0.0410     1.0006     1.0006     0.0000
 10 C      6.0954     6.0000    -0.0954     3.8871     3.8871     0.0000
 11 H      1.0373     1.0000    -0.0373     1.0334     1.0334    -0.0000
 12 C      6.0300     6.0000    -0.0300     3.6647     3.6647     0.0000
 13 C      5.9908     6.0000     0.0092     3.9017     3.9017     0.0000
 14 H      1.0440     1.0000    -0.0440     1.0285     1.0285     0.0000
 15 C      6.0520     6.0000    -0.0520     3.8625     3.8625     0.0000
 16 H      1.0279     1.0000    -0.0279     0.9877     0.9877     0.0000
 17 C      5.7525     6.0000     0.2475     3.8657     3.8657     0.0000
 18 H      1.0137     1.0000    -0.0137     1.0715     1.0715     0.0000
 19 O      8.3467     8.0000    -0.3467     2.0436     2.0436    -0.0000
 20 H      0.8228     1.0000     0.1772     1.0092     1.0092    -0.0000
 21 C      5.9431     6.0000     0.0569     4.5787     4.5787    -0.0000
 22 O      8.4257     8.0000    -0.4257     2.0683     2.0683    -0.0000
 23 O      8.4316     8.0000    -0.4316     2.0588     2.0588     0.0000

  Mayer bond orders larger than 0.100000
B(  0-C ,  1-H ) :   0.9161 B(  0-C ,  2-H ) :   0.9196 B(  0-C ,  3-C ) :   1.9393 
B(  3-C ,  4-C ) :   0.8386 B(  3-C ,  7-O ) :   1.0406 B(  4-C ,  5-O ) :   1.8864 
B(  4-C ,  6-O ) :   1.7924 B(  5-O ,  6-O ) :   0.1165 B(  6-O , 18-H ) :   0.1034 
B(  7-O ,  8-C ) :   0.9202 B(  8-C ,  9-H ) :   0.9058 B(  8-C , 10-C ) :   0.9854 
B(  8-C , 17-C ) :   0.9618 B( 10-C , 11-H ) :   0.9423 B( 10-C , 12-C ) :   1.7658 
B( 12-C , 13-C ) :   1.0751 B( 12-C , 21-C ) :   0.8437 B( 13-C , 14-H ) :   0.9731 
B( 13-C , 15-C ) :   1.7778 B( 15-C , 16-H ) :   0.9644 B( 15-C , 17-C ) :   0.9657 
B( 17-C , 18-H ) :   0.8818 B( 17-C , 19-O ) :   1.0371 B( 19-O , 20-H ) :   0.9725 
B( 21-C , 22-O ) :   1.8716 B( 21-C , 23-O ) :   1.8654 B( 22-O , 23-O ) :   0.1140 


-------
TIMINGS
-------

Total SCF time: 0 days 0 hours 0 min 17 sec 

Total time                  ....      17.060 sec
Sum of individual times     ....      16.824 sec  ( 98.6%)

SCF preparation             ....       1.747 sec  ( 10.2%)
Fock matrix formation       ....      14.471 sec  ( 84.8%)
  Startup                   ....       0.080 sec  (  0.5% of F)
  Split-RI-J                ....       0.692 sec  (  4.8% of F)
  Chain of spheres X        ....      11.303 sec  ( 78.1% of F)
  XC integration            ....       1.364 sec  (  9.4% of F)
    XC Preparation          ....       0.000 sec  (  0.0% of XC)
    Basis function eval.    ....       0.328 sec  ( 24.1% of XC)
    Density eval.           ....       0.241 sec  ( 17.6% of XC)
    XC-Functional eval.     ....       0.055 sec  (  4.0% of XC)
    XC-Potential eval.      ....       0.340 sec  ( 24.9% of XC)
  CPCM terms                ....       0.853 sec  (  5.9% of F)
Diagonalization             ....       0.000 sec  (  0.0%)
Density matrix formation    ....       0.081 sec  (  0.5%)
Total Energy calculation    ....       0.065 sec  (  0.4%)
Population analysis         ....       0.127 sec  (  0.7%)
Orbital Transformation      ....       0.081 sec  (  0.5%)
Orbital Orthonormalization  ....       0.000 sec  (  0.0%)
DIIS solution               ....       0.103 sec  (  0.6%)
SOSCF solution              ....       0.147 sec  (  0.9%)
Finished LeanSCF after  17.4 sec

Maximum memory used throughout the entire LEANSCF-calculation: 31.1 MB


-------------------------------------------------------------------------------
                          DFT DISPERSION CORRECTION                            
                                                                               
                              DFTD3 V3.1  Rev 1                                
                          USING Becke-Johnson damping                          
-------------------------------------------------------------------------------
The B3LYP functional is recognized
Active option DFTDOPT                   ...         4   

molecular C6(AA) [au] = 6928.786757 


            DFT-D V3
 parameters
 s6 scaling factor         :     1.0000 
 a1 scaling factor         :     0.3981 
 s8 scaling factor         :     1.9889 
 a2 scaling factor         :     4.4211 
 ad hoc parameters k1-k3   :    16.0000     1.3333    -4.0000 

 Edisp/kcal,au: -33.411684536342  -0.053244902831 
 E6   /kcal   : -15.647845248 
 E8   /kcal   : -17.763839288 
 % E8         :  53.166547975 

-------------------------   ----------------
Dispersion correction           -0.053244903
-------------------------   ----------------


-------------------------   --------------------
FINAL SINGLE POINT ENERGY      -836.365884981193
-------------------------   --------------------



           ************************************************************
           *        Program running with 8 parallel MPI-processes     *
           *              working on a common directory               *
           ************************************************************

------------------------------------------------------------------------------
                              ORCA PROPERTY CALCULATIONS
------------------------------------------------------------------------------

GBWName                                 ... pol_R_bare.gbw
Number of atoms                         ...     24
Number of basis functions               ...    264
Max core memory                         ...   3000 MB

Electric properties:
Dipole moment                           ... YES
Quadrupole moment                       ...  NO
Static polarizability (Dipole/Dipole)   ...  NO
Static polarizability (Dipole/Quad.)    ...  NO
Static polarizability (Quad./Quad.)     ...  NO
Static polarizability (Velocity)        ...  NO

Atomic electric properties:
Dipole moment                           ...  NO
Quadrupole moment                       ...  NO
Static polarizability                   ...  NO

Choice of electric origin               ... Center of mass
Position of electric origin             ...    40.846256    76.630677   107.843484

General magnetic properties:
Magnetizability                         ...  NO

EPR properties:
g-Tensor (aka g-matrix)                 ...  NO
Zero-Field splitting spin-orbit         ...  NO
Zero-field splitting spin-spin          ...  NO
Hyperfine couplings                     ...  NO (   0 nuclei)
Quadrupole couplings                    ...  NO (   0 nuclei)
Contact density                         ...  NO (   0 nuclei)

NMR properties:
Chemical shifts                         ...  NO (   0 nuclei)
Spin-rotation constants                 ...  NO (   0 nuclei)
Spin-spin couplings                     ...  NO (   0 nuclei,    0 pairs)

Choice of magnetic origin               ... GIAO
Position of magnetic origin             ...     0.000000     0.000000     0.000000

Properties with geometric perturbations:
SCF Hessian                             ...  NO
IR spectrum                             ...  NO
VCD spectrum                            ...  NO
X-ray spectroscopy properties:
SCF XES/XAS/RIXS spectra                ...  NO


-------------
DIPOLE MOMENT
-------------

Method             : SCF
Type of density    : Electron Density
Multiplicity       :   1
Irrep              :   0
Energy             :  -836.3126400783614827 Eh
Relativity type    : 
Basis              : AO
                                X                 Y                 Z
Electronic contribution:     -0.317453329       0.430967119      -0.042124129
Nuclear contribution   :      2.219201252      -4.221843304       1.393098155
                        -----------------------------------------
Total Dipole Moment    :      1.901747923      -3.790876185       1.350974026
                        -----------------------------------------
Magnitude (a.u.)       :      4.451125501
Magnitude (Debye)      :     11.313861897



--------------------
Rotational spectrum 
--------------------
 
Rotational constants in cm-1:             0.023208             0.016273             0.012591 
Rotational constants in MHz :           695.743474           487.844883           377.473733 

Dipole components along the rotational axes: 
x,y,z [a.u.] :    -1.627454    -3.859302     1.506552 
x,y,z [Debye]:    -4.136659    -9.809567     3.829351 

 

Dipole moment calculation done in   0.0 sec 

Maximum memory used throughout the entire PROP-calculation: 13.8 MB

--------------------------------
SUGGESTED CITATIONS FOR THIS RUN
--------------------------------

Below you find a list of papers that are relevant to this ORCA run
We neither can nor want to force you to cite these papers, but we appreciate if you do
You receive ORCA, which is the product of decades of hard work by many enthusiastic individuals, for free
The only thing we kindly ask in return is that you cite our papers,
We deeply appreciate it, if you show your appreciation for ORCA by not just citing the generic ORCA reference.

Please note that relegating all ORCA citations to the supporting information does *not* help us.
SI sections are not indexed - citations you put there will not count into any citation statistics
But we need these citations in order to attract the funding resources that allow us to do what we are doing

Therefore, if you are a happy ORCA user, please consider citing a few of the papers listed below in the main body of your paper

In addition to the list printed below, the program has created the file pol_R_bare.bibtex that contains the list in bibtex format
You can import this file easily into all common literature databanks and citation aid programs


List of essential papers. We consider these as the minimum necessary citations

  1. Neese,F.
     Software update: the ORCA program system, version 5.0
     WIRES Comput. Molec. Sci., 2022 12(1)e1606
     doi.org/10.1002/wcms.1606

List of papers to cite with high priority. The work reported in these papers was absolutely
necessary for this run to complete.
Our perspective: the developers of density functionals and basis sets usually get cited in chemistry papers
Good! But without the algorithms to do something with them, the functionals or basis sets would not do anything.
Hence, in our opinion, the algorithm design and method developments papers are equally worthy of getting cited

  1. Neese,F.
     An improvement of the resolution of the identity approximation for the formation of the Coulomb matrix
     J. Comp. Chem., 2003 24(14)1740-1747
     doi.org/10.1002/jcc.10318
  2. Neese,F.; Wennmohs,F.; Hansen,A.; Becker,U.
     Efficient, approximate and parallel Hartree-Fock and hybrid DFT calculations. A 'chain-of-spheres' algorithm for the Hartree-Fock exchange
     Chem. Phys., 2009 356(1-3)98-109
     doi.org/10.1016/j.chemphys.2008.10.036
  3. Garcia-Rates,M.; Neese,F.
     Effect of the Solute Cavity on the Solvation Energy and its Derivatives within the Framework of the Gaussian Charge Scheme
     J. Comput. Chem., 2020 41 922-939
     doi.org/10.1002/jcc.26139
  4. Helmich-Paris,B.; de Souza,B.; Neese,F.; Izsák,R.
     An improved chain of spheres for exchange algorithm
     J. Chem. Phys., 2021 155 104109
     doi.org/doi: 10.1063/5.0058766.
  5. Neese,F.
     The SHARK Integral Generation and Digestion System
     J. Comp. Chem., 2022  1-16
     doi.org/10.1002/jcc.26942
  6. Grimme,S.; Antony,J.; Ehrlich,S.; Krieg,H.
     A consistent and accurate ab initio parametrization of density functional dispersion correction (DFT-D) for the 94 elements H-Pu
     J. Chem. Phys., 2010 132 154104
     doi.org/10.1063/1.3382344
  7. Grimme,S.; Ehrlich,S.; Goerigk,L.
     Effect of the damping function in dispersion corrected density functional theory
     J. Comput. Chem., 2011 32(7)1456-1465
     doi.org/10.1002/jcc.21759

List of suggested additional citations. These are papers that are important in the 'surrounding' of 
of this run, or papers that preceded the highly important papers. If you like your results we are grateful for a citation.

  1. Izsak,R.; Neese,F.
     An overlap fitted chain of spheres exchange method
     J. Chem. Phys., 2011 135 144105
     doi.org/10.1063/1.3646921
  2. Izsak,R.; Hansen,A.; Neese,F.
     The resolution of identity and chain of spheres approximations for the LPNO-CCSD singles Fock term
     Molec. Phys., 2012 110 2413-2417
     doi.org/10.1080/00268976.2012.687466
  3. Neese,F.
     The ORCA program system
     WIRES Comput. Molec. Sci., 2012 2(1)73-78
     doi.org/10.1002/wcms.81
  4. Izsak,R.; Neese,F.; Klopper,W.
     Robust fitting techniques in the chain of spheres approximation to the Fock exchange: The role of the complementary space
     J. Chem. Phys., 2013 139 
     doi.org/10.1063/1.4819264
  5. Neese,F.
     Software update: the ORCA program system, version 4.0
     WIRES Comput. Molec. Sci., 2018 8(1)1-6
     doi.org/10.1002/wcms.1327
  6. Neese,F.; Wennmohs,F.; Becker,U.; Riplinger,C.
     The ORCA quantum chemistry program package
     J. Chem. Phys., 2020 152 Art. No. L224108
     doi.org/10.1063/5.0004608

List of optional additional citations

  1. Neese,F.
     Approximate second-order SCF convergence for spin unrestricted wavefunctions
     Chem. Phys. Lett., 2000 325(1-3)93-98
     doi.org/10.1016/s0009-2614(00)00662-x

Timings for individual modules:

Sum of individual times          ...       30.566 sec (=   0.509 min)
Startup calculation              ...        7.306 sec (=   0.122 min)  23.9 %
SCF iterations                   ...       21.363 sec (=   0.356 min)  69.9 %
Property calculations            ...        1.898 sec (=   0.032 min)   6.2 %
                             ****ORCA TERMINATED NORMALLY****
TOTAL RUN TIME: 0 days 0 hours 0 minutes 39 seconds 992 msec
