
                                 *****************
                                 * O   R   C   A *
                                 *****************

                                            #,                                       
                                            ###                                      
                                            ####                                     
                                            #####                                    
                                            ######                                   
                                           ########,                                 
                                     ,,################,,,,,                         
                               ,,#################################,,                 
                          ,,##########################################,,             
                       ,#########################################, ''#####,          
                    ,#############################################,,   '####,        
                  ,##################################################,,,,####,       
                ,###########''''           ''''###############################       
              ,#####''   ,,,,##########,,,,          '''####'''          '####       
            ,##' ,,,,###########################,,,                        '##       
           ' ,,###''''                  '''############,,,                           
         ,,##''                                '''############,,,,        ,,,,,,###''
      ,#''                                            '''#######################'''  
     '                                                          ''''####''''         
             ,#######,   #######,   ,#######,      ##                                
            ,#'     '#,  ##    ##  ,#'     '#,    #''#        ,####,   ,####,        
            ##       ##  ##   ,#'  ##            #'  '#       #'       #'  '#        
            ##       ##  #######   ##           ,######,      #####,   #    #        
            '#,     ,#'  ##    ##  '#,     ,#' ,#      #,     #,   #   #,  ,#        
             '#######'   ##     ##  '#######'  #'      '#     '####' # '####'        



                #########################################################
                #                        -***-                          #
                #          Department of theory and spectroscopy        #
                #                                                       #
                #                      Frank Neese                      #
                #                                                       #
                #     Directorship, Architecture, Infrastructure        #
                #                    SHARK, DRIVERS                     #
                #        Core code/Algorithms in most modules           #
                #                                                       #
                #        Max Planck Institute fuer Kohlenforschung      #
                #                Kaiser Wilhelm Platz 1                 #
                #                 D-45470 Muelheim/Ruhr                 #
                #                      Germany                          #
                #                                                       #
                #                  All rights reserved                  #
                #                        -***-                          #
                #########################################################


                         Program Version 6.0.1  -  RELEASE   -


 With contributions from (in alphabetic order):
[Max-Planck-Institut fuer Kohlenforschung]                               
  Daniel Aravena         : Magnetic Suceptibility                        
  Michael Atanasov       : Ab Initio Ligand Field Theory (pilot matlab implementation)
  Alexander A. Auer      : GIAO ZORA, VPT2 properties, NMR spectrum      
  Ute Becker             : All parallelization in ORCA, NUMFREQ, NUMCALC 
  Giovanni Bistoni       : ED, misc. LED, open-shell LED, HFLD           
  Martin Brehm           : Molecular dynamics                            
  Dmytro Bykov           : pre 5.0 version of the SCF Hessian            
  Marcos Casanova-Páez   : Triplet and SCS-CIS(D). UHF-(DLPNO)-IP/EA/STEOM-CCSD. UHF-CVS-IP/STEOM-CCSD   
  Vijay G. Chilkuri      : MRCI spin determinant printing, contributions to CSF-ICE 
  Pauline Colinet        : FMM embedding                                 
  Dipayan Datta          : RHF DLPNO-CCSD density                        
  Achintya Kumar Dutta   : EOM-CC, STEOM-CC                              
  Nicolas Foglia         : Exact transition moments, OPA infrastructure, MCD improvements    
  Dmitry Ganyushin       : Spin-Orbit,Spin-Spin,Magnetic field MRCI      
  Miquel Garcia-Rates    : C-PCM and meta-GGA Hessian, CCSD/C-PCM, Gaussian charge scheme 
  Tiago L. C. Gouveia    : GS-ROHF, GS-ROCIS                             
  Yang Guo               : DLPNO-NEVPT2, F12-NEVPT2, CIM, IAO-localization        
  Andreas Hansen         : Spin unrestricted coupled pair/coupled cluster methods 
  Ingolf Harden          : AUTO-CI MPn and infrastructure                
  Benjamin Helmich-Paris : MC-RPA, TRAH-(SCF,CASSCF), AVAS, COSX integrals, SCF dyn. polar. 
  Lee Huntington         : MR-EOM, pCC                                   
  Robert Izsak           : Overlap fitted RIJCOSX, COSX-SCS-MP3, EOM     
  Riya Kayal             : Wick's Theorem for AUTO-CI, AUTO-CI UHF-CCSDT 
  Emily Kempfer          : AUTO-CI, RHF CISDT and CCSDT                  
  Christian Kollmar      : KDIIS, OOCD, Brueckner-CCSD(T), CCSD density, CASPT2, CASPT2-K, improved NEVPT2 
  Axel Koslowski         : Symmetry handling                             
  Simone Kossmann        : meta-GGA functionals, TD-DFT gradient, OOMP2, (MP2 Hessian; deprecated post 5.0) 
  Lucas Lang             : DCDCAS                                        
  Marvin Lechner         : AUTO-CI (C++ implementation), FIC-MRCC        
  Spencer Leger          : CASSCF response                               
  Dagmar Lenk            : GEPOL surface, SMD, ORCA-2-JSON               
  Dimitrios Liakos       : Extrapolation schemes; Compound Job, initial MDCI parallelization 
  Dimitrios Manganas     : Further ROCIS development; embedding schemes. LFT, Crystal Embedding 
  Dimitrios Pantazis     : SARC Basis sets                               
  Anastasios Papadopoulos: AUTO-CI, single reference methods and gradients 
  Taras Petrenko         : pre 6.0 DFT Hessian and TD-DFT gradient, (ASA, deprecated), ECA, 1-Electron XAS/XES, NRVS 
  Peter Pinski           : DLPNO-MP2, DLPNO-MP2 Gradient                 
  Christoph Reimann      : Effective Core Potentials                     
  Marius Retegan         : Local ZFS, SOC                                
  Christoph Riplinger    : Optimizer, TS searches, QM/MM, DLPNO-CCSD(T), (RO)-DLPNO pert. Triples 
  Michael Roemelt        : Original ROCIS implementation                 
  Masaaki Saitow         : Open-shell DLPNO-CCSD energy and density      
  Barbara Sandhoefer     : DKH picture change effects                    
  Kantharuban Sivalingam : CASSCF convergence/infrastructure, NEVPT2 and variants, FIC-MRCI 
  Bernardo de Souza      : ESD, SOC TD-DFT                               
  Georgi L. Stoychev     : AutoAux, RI-MP2 NMR, DLPNO-MP2 response, X2C  
  Van Anh Tran           : RI-MP2 g-tensors                              
  Willem Van den Heuvel  : Paramagnetic NMR                              
  Zikuan Wang            : NOTCH, Electric field optimization            
  Frank Wennmohs         : Technical directorship and infrastructure     
  Hang Xu                : AUTO-CI-Response properties                   
                                                                         
[FACCTs GmbH]                                                            
  Markus Bursch, Miquel Garcia-Rates, Christoph Riplinger, Bernardo de Souza, Georgi L. Stoychev 
                                                                 
  APM, Basis sets (HGBS, AHGBS, def-TZVP (Ac-Lr), def2-XVPD (La-Lu)), CI-OPT, improved COSX, DLPNO-Multilevel,           
  DOCKER, DRACO, updates on ESD, GOAT, IRC, LR-CPCM, MBIS, meta-GGA TD-DFT gradient, ML-optimized integration grids, 
  MM, NACMEs, nearIR, NEB, NEB-TS, NL-DFT gradient (VV10), 2- and 3-layer-ONIOM, interface openCOSMO-RS, QMMM,   
  Crystal-QMMM, SF, symmetry and pop. for TD-DFT, r2SCAN hybrids, SOLVATOR                                   
                                                                         
[Other institutions]                                                     
  V. Asgeirsson          : NEB                                           
  Christoph Bannwarth    : sTDA-DFT, sTD-DFT, PBEh-3c, B97-3c, D3        
  Sebastian Ehlert       : rSCAN, r2SCAN, r2SCAN-3c, D4, dhf basis sets  
  Marvin Friede          : D4 for Fr, Ra, Ac-Lr                          
  Lars Goerigk           : TD-DFT with DH, B97 family of functionals     
  Stefan Grimme          : VdW corrections, initial TS optimization, DFT functionals, gCP, sTDA/sTD-DF 
  Waldemar Hujo          : DFT-NL                                        
  H. Jonsson             : NEB                                           
  Holger Kruse           : gCP                                           
  Marcel Mueller         : wB97X-3c, vDZP basis set                      
  Hagen Neugebauer       : wr2SCAN                                       
  Tobias Risthaus        : range-separated hybrid DFT                    
  Lukas Wittmann         : regularized MP2, r2SCAN double-hybrids, wr2SCAN        
                                                                         
We gratefully acknowledge several colleagues who have allowed us to      
interface, adapt or use parts of their codes:                            
  Ed Valeev, F. Pavosevic, A. Kumar             : LibInt (2-el integral package), F12 methods 
  Garnet Chan, S. Sharma, J. Yang, R. Olivares  : DMRG                   
  Ulf Ekstrom                                   : XCFun DFT Library      
  Mihaly Kallay                                 : mrcc  (arbitrary order and MRCC methods)
  Frank Weinhold                                : gennbo (NPA and NBO analysis)           
  Simon Mueller                                 : openCOSMO-RS                            
  Christopher J. Cramer and Donald G. Truhlar   : smd solvation model                     
  S Lehtola, MJT Oliveira, MAL Marques          : LibXC Library                           
  Liviu Ungur et al                             : ANISO software                          


 Your calculation uses the libint2 library for the computation of 2-el integrals
 For citations please refer to: http://libint.valeyev.net

 Your ORCA version has been built with support for libXC version: 6.2.2
 For citations please refer to: https://libxc.gitlab.io

 This ORCA versions uses:
   CBLAS   interface :  Fast vector & matrix operations
   LAPACKE interface :  Fast linear algebra routines
   SCALAPACK package :  Parallel linear algebra routines
   Shared memory     :  Shared parallel matrices
   BLAS/LAPACK       :  OpenBLAS 0.3.27  USE64BITINT DYNAMIC_ARCH NO_AFFINITY Bulldozer SINGLE_THREADED
        Core in use  :  Bulldozer
   Copyright (c) 2011-2014, The OpenBLAS Project


NOTE: MaxCore=3000 MB was set to SCF,MP2,MDCI,CIPSI,MRCI and CIS
      => If you want to overwrite this, your respective input block should be placed after the MaxCore statement
Your calculation utilizes the atom-pairwise dispersion correction
with the Becke-Johnson damping scheme (D3BJ)


================================================================================

----- Orbital basis set information -----
Your calculation utilizes the basis: def2-SVP
   F. Weigend and R. Ahlrichs, Phys. Chem. Chem. Phys. 7, 3297 (2005).

----- AuxJ basis set information -----
Your calculation utilizes the auxiliary basis: def2/J
   F. Weigend, Phys. Chem. Chem. Phys. 8, 1057 (2006).

================================================================================
                                        WARNINGS
                       Please study these warnings very carefully!
================================================================================

WARNING: Old DensityContainer found on disk!
         Will remove this file - 
         If you want to keep old densities, please start your calculation with a different basename. 


================================================================================
                                       INPUT FILE
================================================================================
NAME = polf_TS_bare.inp
|  1> ! B3LYP D3BJ def2-SVP def2/J RIJCOSX CPCM KeepDens
|  2> %maxcore 3000
|  3> %pal nprocs 8 end
|  4> %cpcm epsilon 4.0 end
|  5> %scf MaxIter 300 end
|  6> * xyz -2 1
|  7> C     19.71825481    41.08376387    56.97302294
|  8> H     19.51998914    41.92482362    56.30836658
|  9> H     19.37641528    41.12968172    58.00544975
| 10> C     20.13166662    39.88130127    56.41496061
| 11> C     20.50252906    39.85764400    54.91806968
| 12> O     20.06536473    40.77641660    54.18479265
| 13> O     21.21261668    38.89130216    54.53088373
| 14> O     20.32721824    38.82622612    57.10753495
| 15> C     22.16620765    38.97618677    58.25575746
| 16> H     21.95657718    38.06499850    58.81845878
| 17> C     21.84499979    40.21468356    58.78898825
| 18> H     21.26724075    40.29993641    59.71060709
| 19> C     22.02567517    41.36546521    58.01391215
| 20> C     22.90608916    41.29169284    56.85015884
| 21> H     23.12581168    42.22633481    56.33391133
| 22> C     23.45299888    40.12649983    56.45353382
| 23> H     24.15495295    40.08949566    55.61550470
| 24> C     23.13109136    38.81190798    57.10043805
| 25> H     22.61436549    38.21503319    56.33072233
| 26> O     24.33475109    38.17937608    57.52900571
| 27> H     24.29675361    37.21522165    57.38386253
| 28> C     21.60247124    42.73276948    58.55430593
| 29> O     22.00092891    43.75937103    57.94572530
| 30> O     20.85458622    42.74962686    59.56440370
| 31> *
| 32> 
| 33>                          ****END OF INPUT****
================================================================================

                       ****************************
                       * Single Point Calculation *
                       ****************************

---------------------------------
CARTESIAN COORDINATES (ANGSTROEM)
---------------------------------
  C     19.718255   41.083764   56.973023
  H     19.519989   41.924824   56.308367
  H     19.376415   41.129682   58.005450
  C     20.131667   39.881301   56.414961
  C     20.502529   39.857644   54.918070
  O     20.065365   40.776417   54.184793
  O     21.212617   38.891302   54.530884
  O     20.327218   38.826226   57.107535
  C     22.166208   38.976187   58.255757
  H     21.956577   38.064999   58.818459
  C     21.845000   40.214684   58.788988
  H     21.267241   40.299936   59.710607
  C     22.025675   41.365465   58.013912
  C     22.906089   41.291693   56.850159
  H     23.125812   42.226335   56.333911
  C     23.452999   40.126500   56.453534
  H     24.154953   40.089496   55.615505
  C     23.131091   38.811908   57.100438
  H     22.614365   38.215033   56.330722
  O     24.334751   38.179376   57.529006
  H     24.296754   37.215222   57.383863
  C     21.602471   42.732769   58.554306
  O     22.000929   43.759371   57.945725
  O     20.854586   42.749627   59.564404

----------------------------
CARTESIAN COORDINATES (A.U.)
----------------------------
  NO LB      ZA    FRAG     MASS         X           Y           Z
   0 C     6.0000    0    12.011   37.262101   77.637062  107.663410
   1 H     1.0000    0     1.008   36.887434   79.226435  106.407392
   2 H     1.0000    0     1.008   36.616118   77.723834  109.614414
   3 C     6.0000    0    12.011   38.043337   75.364737  106.608825
   4 C     6.0000    0    12.011   38.744165   75.320032  103.780111
   5 O     8.0000    0    15.999   37.918044   77.056260  102.394419
   6 O     8.0000    0    15.999   40.086036   73.493910  103.048436
   7 O     8.0000    0    15.999   38.412876   73.370934  107.917601
   8 C     6.0000    0    12.011   41.888062   73.654319  110.087427
   9 H     1.0000    0     1.008   41.491918   71.932422  111.150779
  10 C     6.0000    0    12.011   41.281067   75.994738  111.095087
  11 H     1.0000    0     1.008   40.189261   76.155843  112.836695
  12 C     6.0000    0    12.011   41.622494   78.169401  109.630406
  13 C     6.0000    0    12.011   43.286235   78.029991  107.431231
  14 H     1.0000    0     1.008   43.701451   79.796208  106.455664
  15 C     6.0000    0    12.011   44.319745   75.828095  106.681718
  16 H     1.0000    0     1.008   45.646246   75.758168  105.098073
  17 C     6.0000    0    12.011   43.711428   73.343877  107.904190
  18 H     1.0000    0     1.008   42.734957   72.215947  106.449638
  19 O     8.0000    0    15.999   45.986015   72.148565  108.714066
  20 H     1.0000    0     1.008   45.914210   70.326577  108.439785
  21 C     6.0000    0    12.011   40.822754   80.753231  110.651602
  22 O     8.0000    0    15.999   41.575730   82.693227  109.501551
  23 O     8.0000    0    15.999   39.409457   80.785087  112.560410

--------------------------------
INTERNAL COORDINATES (ANGSTROEM)
--------------------------------
 C      0   0   0     0.000000000000     0.00000000     0.00000000
 H      1   0   0     1.090164600351     0.00000000     0.00000000
 H      1   2   0     1.088516344033   119.24923047     0.00000000
 C      1   2   3     1.388617727530   118.50237778   166.11898254
 C      4   1   2     1.542329754671   118.35368881     9.49117571
 O      5   4   1     1.254173410921   118.18972166   339.70880403
 O      5   4   1     1.260140444430   116.45297913   160.72684327
 O      4   1   2     1.277138686541   122.88981716   183.33020584
 C      8   4   1     2.173196995008   111.04392456   285.93403847
 H      9   8   4     1.091256969218    92.99613263   171.27729619
 C      9   8   4     1.386139914861    93.94593351    50.70196512
 H     11   9   8     1.091079668483   121.16206312    87.85057469
 C     11   9   8     1.399172955608   119.46199013   280.64841797
 C     13  11   9     1.461127278131   118.52174131   341.62063313
 H     14  13  11     1.090112420561   117.08755655   187.18899785
 C     14  13  11     1.346883958949   121.52659581     5.38517841
 H     16  14  13     1.093801458655   121.02902228   183.45656043
 C     16  14  13     1.500087086242   122.95633199     4.54201555
 H     18  16  14     1.102600303501   105.89728924   114.49387411
 O     18  16  14     1.425680044519   109.71051682   234.86126645
 H     20  18  16     0.975758226240   111.14946637   218.36180159
 C     13  11   9     1.529917635231   120.24291991   176.49136362
 O     22  13  11     1.258193006043   118.08343232   167.05558190
 O     22  13  11     1.256946172022   117.41450924   345.62360757

---------------------------
INTERNAL COORDINATES (A.U.)
---------------------------
 C      0   0   0     0.000000000000     0.00000000     0.00000000
 H      1   0   0     2.060112535560     0.00000000     0.00000000
 H      1   2   0     2.056997782519   119.24923047     0.00000000
 C      1   2   3     2.624107209740   118.50237778   166.11898254
 C      4   1   2     2.914580844526   118.35368881     9.49117571
 O      5   4   1     2.370044271086   118.18972166   339.70880403
 O      5   4   1     2.381320330251   116.45297913   160.72684327
 O      4   1   2     2.413442352598   122.88981716   183.33020584
 C      8   4   1     4.106747155626   111.04392456   285.93403847
 H      9   8   4     2.062176813556    92.99613263   171.27729619
 C      9   8   4     2.619424822384    93.94593351    50.70196512
 H     11   9   8     2.061841763723   121.16206312    87.85057469
 C     11   9   8     2.644053700089   119.46199013   280.64841797
 C     13  11   9     2.761130402470   118.52174131   341.62063313
 H     14  13  11     2.060013930047   117.08755655   187.18899785
 C     14  13  11     2.545241816585   121.52659581     5.38517841
 H     16  14  13     2.066985201741   121.02902228   183.45656043
 C     16  14  13     2.834753770030   122.95633199     4.54201555
 H     18  16  14     2.083612608795   105.89728924   114.49387411
 O     18  16  14     2.694144838737   109.71051682   234.86126645
 H     20  18  16     1.843915820515   111.14946637   218.36180159
 C     13  11   9     2.891125338043   120.24291991   176.49136362
 O     22  13  11     2.377640205036   118.08343232   167.05558190
 O     22  13  11     2.375284030202   117.41450924   345.62360757

---------------------
BASIS SET INFORMATION
---------------------
There are 3 groups of distinct atoms

 Group   1 Type C   : 7s4p1d contracted to 3s2p1d pattern {511/31/1}
 Group   2 Type H   : 4s1p contracted to 2s1p pattern {31/1}
 Group   3 Type O   : 7s4p1d contracted to 3s2p1d pattern {511/31/1}

Atom   0C    basis set group =>   1
Atom   1H    basis set group =>   2
Atom   2H    basis set group =>   2
Atom   3C    basis set group =>   1
Atom   4C    basis set group =>   1
Atom   5O    basis set group =>   3
Atom   6O    basis set group =>   3
Atom   7O    basis set group =>   3
Atom   8C    basis set group =>   1
Atom   9H    basis set group =>   2
Atom  10C    basis set group =>   1
Atom  11H    basis set group =>   2
Atom  12C    basis set group =>   1
Atom  13C    basis set group =>   1
Atom  14H    basis set group =>   2
Atom  15C    basis set group =>   1
Atom  16H    basis set group =>   2
Atom  17C    basis set group =>   1
Atom  18H    basis set group =>   2
Atom  19O    basis set group =>   3
Atom  20H    basis set group =>   2
Atom  21C    basis set group =>   1
Atom  22O    basis set group =>   3
Atom  23O    basis set group =>   3
---------------------------------
AUXILIARY/J BASIS SET INFORMATION
---------------------------------
There are 3 groups of distinct atoms

 Group   1 Type C   : 12s5p4d2f1g contracted to 6s4p3d1f1g pattern {711111/2111/211/2/1}
 Group   2 Type H   : 5s2p1d contracted to 3s1p1d pattern {311/2/1}
 Group   3 Type O   : 12s5p4d2f1g contracted to 6s4p3d1f1g pattern {711111/2111/211/2/1}

Atom   0C    basis set group =>   1
Atom   1H    basis set group =>   2
Atom   2H    basis set group =>   2
Atom   3C    basis set group =>   1
Atom   4C    basis set group =>   1
Atom   5O    basis set group =>   3
Atom   6O    basis set group =>   3
Atom   7O    basis set group =>   3
Atom   8C    basis set group =>   1
Atom   9H    basis set group =>   2
Atom  10C    basis set group =>   1
Atom  11H    basis set group =>   2
Atom  12C    basis set group =>   1
Atom  13C    basis set group =>   1
Atom  14H    basis set group =>   2
Atom  15C    basis set group =>   1
Atom  16H    basis set group =>   2
Atom  17C    basis set group =>   1
Atom  18H    basis set group =>   2
Atom  19O    basis set group =>   3
Atom  20H    basis set group =>   2
Atom  21C    basis set group =>   1
Atom  22O    basis set group =>   3
Atom  23O    basis set group =>   3

Checking for AutoStart:
The File: polf_TS_bare.gbw exists
Trying to determine its content:
     ... Fine, the file contains calculation information
     ... Fine, the calculation information was read
     ... Fine, the file contains a basis set
     ... Fine, the basis set was read
     ... Fine, the file contains a geometry
     ... Fine, the geometry was read
     ... Fine, the file contains a set of orbitals
     ... Fine, the orbitals can be read
     => possible old guess file was deleted
     => GBW file was renamed to GES file
     => GES file is set as startup file
     => Guess is set to MORead
     ... now leaving AutoStart



           ************************************************************
           *        Program running with 8 parallel MPI-processes     *
           *              working on a common directory               *
           ************************************************************
------------------------------------------------------------------------------
                             ORCA STARTUP CALCULATIONS
                           -- RI-GTO INTEGRALS CHOSEN --
------------------------------------------------------------------------------
------------------------------------------------------------------------------
                   ___                                                        
                  /   \      - P O W E R E D   B Y -                         
                 /     \                                                     
                 |  |  |   _    _      __       _____    __    __             
                 |  |  |  | |  | |    /  \     |  _  \  |  |  /  |          
                  \  \/   | |  | |   /    \    | | | |  |  | /  /          
                 / \  \   | |__| |  /  /\  \   | |_| |  |  |/  /          
                |  |  |   |  __  | /  /__\  \  |    /   |      \           
                |  |  |   | |  | | |   __   |  |    \   |  |\   \          
                \     /   | |  | | |  |  |  |  | |\  \  |  | \   \       
                 \___/    |_|  |_| |__|  |__|  |_| \__\ |__|  \__/        
                                                                              
                      - O R C A' S   B I G   F R I E N D -                    
                                      &                                       
                       - I N T E G R A L  F E E D E R -                       
                                                                              
 v1 FN, 2020, v2 2021, v3 2022-2024                                           
------------------------------------------------------------------------------


----------------------
SHARK INTEGRAL PACKAGE
----------------------

Number of atoms                             ...     24
Number of basis functions                   ...    264
Number of shells                            ...    120
Maximum angular momentum                    ...      2
Integral batch strategy                     ... SHARK/LIBINT Hybrid
RI-J (if used) integral strategy            ... SPLIT-RIJ (Revised 2003 algorithm where possible)
Printlevel                                  ...      1
Contraction scheme used                     ... SEGMENTED contraction
Prescreening option                         ... SCHWARTZ
   Thresh                                   ... 1.000e-10
   Tcut                                     ... 1.000e-11
   Tpresel                                  ... 1.000e-11 
Coulomb Range Separation                    ... NOT USED
Exchange Range Separation                   ... NOT USED
Multipole approximations                    ... NOT USED
Finite Nucleus Model                        ... NOT USED
CABS basis                                  ... NOT available
Auxiliary Coulomb fitting basis             ... AVAILABLE
   # of basis functions in Aux-J            ...    872
   # of shells in Aux-J                     ...    280
   Maximum angular momentum in Aux-J        ...      4
Auxiliary J/K fitting basis                 ... NOT available
Auxiliary Correlation fitting basis         ... NOT available
Auxiliary 'external' fitting basis          ... NOT available

Checking pre-screening integrals            ... done (  0.0 sec) Dimension = 120
Check shell pair data                       ... done (  0.0 sec)
Shell pair information
Shell pair cut-off parameter TPreSel        ...   1.0e-11
Total number of shell pairs                 ...      7260
Shell pairs after pre-screening             ...      6253
Total number of primitive shell pairs       ...     27260
Primitive shell pairs kept                  ...     15608
          la=0 lb=0:   1781 shell pairs
          la=1 lb=0:   2254 shell pairs
          la=1 lb=1:    741 shell pairs
          la=2 lb=0:    831 shell pairs
          la=2 lb=1:    542 shell pairs
          la=2 lb=2:    104 shell pairs

Calculating one electron integrals          ... done (  0.0 sec)
Calculating RI/J V-Matrix + Cholesky decomp.... done (  0.3 sec)
Calculating Nuclear repulsion               ... done (  0.0 sec) ENN=   1117.624645509442 Eh

Diagonalization of the overlap matrix:
Smallest eigenvalue                        ... 3.801e-04
Time for diagonalization                   ...    0.021 sec
Threshold for overlap eigenvalues          ... 1.000e-07
Number of eigenvalues below threshold      ... 0
Time for construction of square roots      ...    0.024 sec
Total time needed                          ...    0.062 sec

-------------------
DFT GRID GENERATION
-------------------

General Integration Accuracy     IntAcc      ... 4.388
Radial Grid Type                 RadialGrid  ... OptM3 with GC (2021)
Angular Grid (max. ang.)         AngularGrid ... 4 (Lebedev-302)
Angular grid pruning method      GridPruning ... 4 (adaptive)
Weight generation scheme         WeightScheme... mBecke (2022)
Basis function cutoff            BFCut       ... 1.0000e-10
Integration weight cutoff        WCut        ... 1.0000e-14
Partially contracted basis set               ... off
Rotationally invariant grid construction     ... off
Angular grids for H and He will be reduced by one unit

Total number of grid points                  ...   121579
Total number of batches                      ...     1911
Average number of points per batch           ...       63
Average number of grid points per atom       ...     5066

--------------------
COSX GRID GENERATION
--------------------

GRIDX 1
-------
General Integration Accuracy     IntAcc      ... 3.816
Radial Grid Type                 RadialGrid  ... OptM3 with GC (2021)
Angular Grid (max. ang.)         AngularGrid ... 1 (Lebedev-50)
Angular grid pruning method      GridPruning ... 4 (adaptive)
Weight generation scheme         WeightScheme... mBecke (2022)
Basis function cutoff            BFCut       ... 1.0000e-10
Integration weight cutoff        WCut        ... 1.0000e-14
Partially contracted basis set               ... on
Rotationally invariant grid construction     ... off
Angular grids for H and He will be reduced by one unit

Total number of grid points                  ...    15390
Total number of batches                      ...      133
Average number of points per batch           ...      115
Average number of grid points per atom       ...      641
UseSFitting                                  ... on

GRIDX 2
-------
General Integration Accuracy     IntAcc      ... 4.020
Radial Grid Type                 RadialGrid  ... OptM3 with GC (2021)
Angular Grid (max. ang.)         AngularGrid ... 2 (Lebedev-110)
Angular grid pruning method      GridPruning ... 4 (adaptive)
Weight generation scheme         WeightScheme... mBecke (2022)
Basis function cutoff            BFCut       ... 1.0000e-10
Integration weight cutoff        WCut        ... 1.0000e-14
Partially contracted basis set               ... on
Rotationally invariant grid construction     ... off
Angular grids for H and He will be reduced by one unit

Total number of grid points                  ...    34385
Total number of batches                      ...      281
Average number of points per batch           ...      122
Average number of grid points per atom       ...     1433
UseSFitting                                  ... on

GRIDX 3
-------
General Integration Accuracy     IntAcc      ... 4.338
Radial Grid Type                 RadialGrid  ... OptM3 with GC (2021)
Angular Grid (max. ang.)         AngularGrid ... 3 (Lebedev-194)
Angular grid pruning method      GridPruning ... 4 (adaptive)
Weight generation scheme         WeightScheme... mBecke (2022)
Basis function cutoff            BFCut       ... 1.0000e-10
Integration weight cutoff        WCut        ... 1.0000e-14
Partially contracted basis set               ... on
Rotationally invariant grid construction     ... off
Angular grids for H and He will be reduced by one unit

Total number of grid points                  ...    75483
Total number of batches                      ...      601
Average number of points per batch           ...      125
Average number of grid points per atom       ...     3145
UseSFitting                                  ... on
Initializing property integral containers    ... done (  0.0 sec)

SHARK setup successfully completed in   5.3 seconds

Maximum memory used throughout the entire STARTUP-calculation: 33.8 MB


           ************************************************************
           *        Program running with 8 parallel MPI-processes     *
           *              working on a common directory               *
           ************************************************************
-------------------------------------------------------------------------------
                                 ORCA GUESS
                   Start orbitals & Density for SCF / CASSCF
-------------------------------------------------------------------------------

------------
SCF SETTINGS
------------
Hamiltonian:
 Density Functional     Method          .... DFT(GTOs)
 Exchange Functional    Exchange        .... B88
   X-Alpha parameter    XAlpha          ....  0.666667
   Becke's b parameter  XBeta           ....  0.004200
 Correlation Functional Correlation     .... LYP
 LDA part of GGA corr.  LDAOpt          .... VWN-5
 Gradients option       PostSCFGGA      .... off
 Hybrid DFT is turned on
   Fraction HF Exchange ScalHFX         ....  0.200000
   Scaling of DF-GGA-X  ScalDFX         ....  0.720000
   Scaling of DF-GGA-C  ScalDFC         ....  0.810000
   Scaling of DF-LDA-C  ScalLDAC        ....  1.000000
   Perturbative correction              ....  0.000000
   NL short-range parameter             ....  4.800000
 RI-approximation to the Coulomb term is turned on
   Number of AuxJ basis functions       .... 872
   RIJ-COSX (HFX calculated with COS-X)).... on


General Settings:
 Integral files         IntName         .... polf_TS_bare
 Hartree-Fock type      HFTyp           .... RHF
 Total Charge           Charge          ....   -2
 Multiplicity           Mult            ....    1
 Number of Electrons    NEL             ....  118
 Basis Dimension        Dim             ....  264
 Nuclear Repulsion      ENuc            ....   1117.6246455094 Eh

Convergence Acceleration:
 AO-DIIS                CNVDIIS         .... on
   Start iteration      DIISMaxIt       ....    12
   Startup error        DIISStart       ....  0.200000
   # of expansion vecs  DIISMaxEq       ....     5
   Bias factor          DIISBfac        ....   1.050
   Max. coefficient     DIISMaxC        ....  10.000
 MO-DIIS                CNVKDIIS        .... off
 Trust-Rad. Augm. Hess. CNVTRAH         .... auto
   Auto Start mean grad. ratio tolernc. ....  1.125000
   Auto Start start iteration           ....     1
   Auto Start num. interpolation iter.  ....    10
   Max. Number of Micro iterations      ....    24
   Max. Number of Macro iterations      .... Maxiter - #DIIS iter
   Number of Davidson start vectors     ....     2
   Converg. threshold    (grad. norm)   ....   5.000e-05
   Grad. Scal. Fac. for Micro threshold ....   0.100
   Minimum threshold for Micro iter.    ....   1.000e-02
   NR start threshold (gradient norm)   ....   1.000e-04
   Initial trust radius                 ....   0.400
   Minimum AH scaling param. (alpha)    ....   1.000
   Maximum AH scaling param. (alpha)    .... 1000.000
   Quad. conv. algorithm                .... NR
   White noise on init. David. guess    .... on
   Maximum white noise                  ....   0.010
   Pseudo random numbers                .... off
   Inactive MOs                         .... canonical
   Orbital update algorithm             .... Taylor
   Preconditioner                       .... Diag
   Full preconditioner red. dimension   ....   250
 SOSCF                  CNVSOSCF        .... on
   Start iteration      SOSCFMaxIt      ....   150
   Startup grad/error   SOSCFStart      ....  0.003300
   Hessian update       SOSCFHessUp     .... L-BFGS
 Level Shifting         CNVShift        .... on
   Level shift para.    LevelShift      ....    0.2500
   Turn off err/grad.   ShiftErr        ....    0.0010
 Zerner damping         CNVZerner       .... off
 Static damping         CNVDamp         .... on
   Fraction old density DampFac         ....    0.7000
   Max. Damping (<1)    DampMax         ....    0.9800
   Min. Damping (>=0)   DampMin         ....    0.0000
   Turn off err/grad.   DampErr         ....    0.1000

SCF Procedure:
 Maximum # iterations   MaxIter         ....   300
 SCF integral mode      SCFMode         .... Direct
   Integral package                     .... SHARK and LIBINT hybrid scheme
 Reset frequency        DirectResetFreq ....    20
 Integral Threshold     Thresh          ....  1.000e-10 Eh
 Primitive CutOff       TCut            ....  1.000e-11 Eh

Convergence Tolerance:
 Convergence Check Mode ConvCheckMode   .... Total+1el-Energy
 Convergence forced     ConvForced      .... 0
 Energy Change          TolE            ....  1.000e-06 Eh
 1-El. energy change                    ....  1.000e-03 Eh
 Orbital Gradient       TolG            ....  5.000e-05
 Orbital Rotation angle TolX            ....  5.000e-05
 DIIS Error             TolErr          ....  1.000e-06

---------------------
INITIAL GUESS: MOREAD
---------------------
Guess MOs are being read from file: polf_TS_bare.ges
Input Geometry matches current geometry (good)
Input basis set matches current basis set (good)
Occupation numbers will be reassigned to an Aufbau configuration
MOs were renormalized
MOs were reorthogonalized (Cholesky)
                      ------------------
                      INITIAL GUESS DONE (   0.1 sec)
                      ------------------
             **** ENERGY FILE WAS UPDATED (polf_TS_bare.en.tmp) ****
Finished Guess after   1.1 sec
Maximum memory used throughout the entire GUESS-calculation: 14.9 MB


           ************************************************************
           *        Program running with 8 parallel MPI-processes     *
           *              working on a common directory               *
           ************************************************************

-------------------------------------------------------------------------------------------
                                      ORCA LEAN-SCF
                              memory conserving SCF solver
-------------------------------------------------------------------------------------------

--------------------
CPCM SOLVATION MODEL
--------------------
CPCM parameters:
  Epsilon                                         ...       4.0000
  Refrac                                          ...       1.3300
  Rsolv                                           ...       1.3000
  Surface type                                    ... GAUSSIAN VDW
  Discretization scheme                           ... Constant charge density
    Threshold for H atoms                         ...       5.0000 (charges/Ang^2)
    Threshold for non-H atoms                     ...       5.0000 (charges/Ang^2)
  Epsilon function type                           ...         CPCM
Solvent:                                          ... CUSTOM
Radii:
  Scheme                                          ... Element-dependent radii
  Radius for C  used is    3.8550 Bohr (=   2.0400 Ang.)
  Radius for H  used is    2.4944 Bohr (=   1.3200 Ang.)
  Radius for O  used is    3.4469 Bohr (=   1.8240 Ang.)
Calculating surface                               ...        done! (  0.0s)
Cavity surface points                             ...         2059
Cavity Volume                                     ...    1640.4641
Cavity Surface-area                               ...     846.4113
Calculating surface distance matrix               ...        done! (  0.1s)
Performing Cholesky decomposition & store         ...        done! (  0.5s)
Overall time for CPCM initialization              ...                 0.6s

----------------------------------------D-I-I-S--------------------------------------------
Iteration    Energy (Eh)           Delta-E    RMSDP     MaxDP     DIISErr   Damp  Time(sec)
-------------------------------------------------------------------------------------------
               ***  Starting incremental Fock matrix formation  ***
                              *** Initializing SOSCF ***
---------------------------------------S-O-S-C-F--------------------------------------
Iteration    Energy (Eh)           Delta-E    RMSDP     MaxDP     MaxGrad    Time(sec)
--------------------------------------------------------------------------------------
    1    -836.2844377371927749     0.00e+00  5.81e-07  2.86e-05  1.24e-06     5.6
               *** Restarting incremental Fock matrix formation ***
    2    -836.2844377376397915    -4.47e-10  7.39e-07  3.95e-05  4.12e-06     5.4
                  *** Gradient check signals convergence ***

               *****************************************************
               *                     SUCCESS                       *
               *           SCF CONVERGED AFTER   2 CYCLES          *
               *****************************************************

Recomputing exchange energy using gridx3       ... done (    6.312 sec)
Old exchange energy                            :    -20.871793258 Eh
New exchange energy                            :    -20.871796435 Eh
Exchange energy change after final integration :     -0.000003177 Eh
Total energy after final integration           :   -836.284440915 Eh
             **** ENERGY FILE WAS UPDATED (polf_TS_bare.en.tmp) ****

----------------
TOTAL SCF ENERGY
----------------

Total Energy       :       -836.28444091463768 Eh          -22756.45655 eV

Components:
Nuclear Repulsion  :       1117.62464550944173 Eh           30412.11273 eV
Electronic Energy  :      -1953.68227875245816 Eh          -53162.39753 eV
One Electron Energy:      -3401.29386057458169 Eh          -92553.91130 eV
Two Electron Energy:       1447.61158182212353 Eh           39391.51377 eV
CPCM Dielectric    :         -0.22680449462335 Eh              -6.17166 eV

Virial components:
Potential Energy   :      -1665.63023700826625 Eh          -45324.10298 eV
Kinetic Energy     :        829.34579609362868 Eh           22567.64643 eV
Virial Ratio       :          2.00836640741858

DFT components:
N(Alpha)           :       59.000016309074 electrons
N(Beta)            :       59.000016309074 electrons
N(Total)           :      118.000032618147 electrons
E(X)               :      -83.100408107525 Eh       
E(C)               :       -4.843737762389 Eh       
E(XC)              :      -87.944145869914 Eh       

CPCM Solvation Model Properties:
Surface-charge          :          1.98314899553303
Corrected charge        :          2.00000000000000
Outlying charge corr.   :          0.00001366040684 Eh               0.00037 eV
Free-energy (cav+disp)  :  This term is not implemented in the current solvation scheme

---------------
SCF CONVERGENCE
---------------

  Last Energy change         ...    4.4702e-10  Tolerance :   1.0000e-06
  Last MAX-Density change    ...    3.9529e-05  Tolerance :   1.0000e-05
  Last RMS-Density change    ...    7.3895e-07  Tolerance :   1.0000e-06
  Last DIIS Error            ...    1.2284e-05  Tolerance :   1.0000e-06
  Last Orbital Gradient      ...    4.1154e-06  Tolerance :   5.0000e-05
  Last Orbital Rotation      ...    8.2537e-06  Tolerance :   5.0000e-05


----------------
ORBITAL ENERGIES
----------------

  NO   OCC          E(Eh)            E(eV) 
   0   2.0000     -19.071708      -518.9676 
   1   2.0000     -19.027198      -517.7564 
   2   2.0000     -18.974350      -516.3183 
   3   2.0000     -18.972065      -516.2561 
   4   2.0000     -18.967882      -516.1423 
   5   2.0000     -18.965865      -516.0874 
   6   2.0000     -10.175184      -276.8808 
   7   2.0000     -10.167745      -276.6784 
   8   2.0000     -10.159738      -276.4605 
   9   2.0000     -10.146017      -276.0872 
  10   2.0000     -10.139920      -275.9212 
  11   2.0000     -10.133758      -275.7536 
  12   2.0000     -10.118907      -275.3495 
  13   2.0000     -10.115106      -275.2460 
  14   2.0000     -10.108547      -275.0675 
  15   2.0000     -10.099536      -274.8223 
  16   2.0000      -0.944537       -25.7022 
  17   2.0000      -0.917209       -24.9585 
  18   2.0000      -0.913425       -24.8556 
  19   2.0000      -0.890337       -24.2273 
  20   2.0000      -0.819563       -22.3014 
  21   2.0000      -0.812037       -22.0966 
  22   2.0000      -0.762989       -20.7620 
  23   2.0000      -0.671617       -18.2756 
  24   2.0000      -0.662673       -18.0322 
  25   2.0000      -0.629035       -17.1169 
  26   2.0000      -0.550290       -14.9742 
  27   2.0000      -0.523342       -14.2409 
  28   2.0000      -0.493493       -13.4286 
  29   2.0000      -0.458995       -12.4899 
  30   2.0000      -0.457155       -12.4398 
  31   2.0000      -0.416049       -11.3213 
  32   2.0000      -0.389898       -10.6097 
  33   2.0000      -0.389184       -10.5902 
  34   2.0000      -0.363065        -9.8795 
  35   2.0000      -0.353418        -9.6170 
  36   2.0000      -0.351508        -9.5650 
  37   2.0000      -0.346771        -9.4361 
  38   2.0000      -0.341534        -9.2936 
  39   2.0000      -0.333244        -9.0680 
  40   2.0000      -0.308240        -8.3876 
  41   2.0000      -0.307114        -8.3570 
  42   2.0000      -0.303686        -8.2637 
  43   2.0000      -0.298793        -8.1306 
  44   2.0000      -0.289842        -7.8870 
  45   2.0000      -0.280388        -7.6298 
  46   2.0000      -0.268752        -7.3131 
  47   2.0000      -0.258038        -7.0216 
  48   2.0000      -0.236323        -6.4307 
  49   2.0000      -0.215024        -5.8511 
  50   2.0000      -0.197848        -5.3837 
  51   2.0000      -0.170936        -4.6514 
  52   2.0000      -0.155842        -4.2407 
  53   2.0000      -0.151646        -4.1265 
  54   2.0000      -0.148464        -4.0399 
  55   2.0000      -0.136838        -3.7236 
  56   2.0000      -0.132924        -3.6171 
  57   2.0000      -0.126261        -3.4357 
  58   2.0000      -0.121947        -3.3184 
  59   0.0000      -0.010264        -0.2793 
  60   0.0000       0.073729         2.0063 
  61   0.0000       0.087549         2.3823 
  62   0.0000       0.111682         3.0390 
  63   0.0000       0.138187         3.7603 
  64   0.0000       0.151511         4.1228 
  65   0.0000       0.166446         4.5292 
  66   0.0000       0.191904         5.2220 
  67   0.0000       0.206887         5.6297 
  68   0.0000       0.215075         5.8525 
  69   0.0000       0.218740         5.9522 
*Only the first 10 virtual orbitals were printed.

                    ********************************
                    * MULLIKEN POPULATION ANALYSIS *
                    ********************************

-----------------------
MULLIKEN ATOMIC CHARGES
-----------------------
   0 C :    0.028623
   1 H :   -0.006142
   2 H :   -0.017244
   3 C :   -0.016182
   4 C :    0.058146
   5 O :   -0.426693
   6 O :   -0.431829
   7 O :   -0.351845
   8 C :    0.035294
   9 H :   -0.021290
  10 C :    0.003730
  11 H :   -0.041396
  12 C :   -0.092653
  13 C :    0.031376
  14 H :   -0.038457
  15 C :   -0.062614
  16 H :   -0.024871
  17 C :    0.313640
  18 H :    0.002400
  19 O :   -0.356505
  20 H :    0.182124
  21 C :    0.081896
  22 O :   -0.418471
  23 O :   -0.431039
Sum of atomic charges:   -2.0000000

--------------------------------
MULLIKEN REDUCED ORBITAL CHARGES
--------------------------------
  0 C s       :     3.091617  s :     3.091617
      pz      :     0.891193  p :     2.856410
      px      :     0.985400
      py      :     0.979816
      dz2     :     0.005220  d :     0.023351
      dxz     :     0.002834
      dyz     :     0.007787
      dx2y2   :     0.004192
      dxy     :     0.003318

  1 H s       :     0.981826  s :     0.981826
      pz      :     0.009468  p :     0.024315
      px      :     0.004898
      py      :     0.009949

  2 H s       :     0.993521  s :     0.993521
      pz      :     0.014128  p :     0.023723
      px      :     0.005491
      py      :     0.004104

  3 C s       :     3.162946  s :     3.162946
      pz      :     0.987725  p :     2.770934
      px      :     0.897578
      py      :     0.885631
      dz2     :     0.022285  d :     0.082302
      dxz     :     0.007265
      dyz     :     0.022824
      dx2y2   :     0.013824
      dxy     :     0.016104

  4 C s       :     3.057962  s :     3.057962
      pz      :     0.977747  p :     2.746839
      px      :     0.862876
      py      :     0.906215
      dz2     :     0.031922  d :     0.137053
      dxz     :     0.018531
      dyz     :     0.031100
      dx2y2   :     0.030233
      dxy     :     0.025267

  5 O s       :     3.712677  s :     3.712677
      pz      :     1.645892  p :     4.700082
      px      :     1.574984
      py      :     1.479207
      dz2     :     0.002039  d :     0.013934
      dxz     :     0.002183
      dyz     :     0.004370
      dx2y2   :     0.002773
      dxy     :     0.002569

  6 O s       :     3.733282  s :     3.733282
      pz      :     1.751605  p :     4.685051
      px      :     1.467615
      py      :     1.465831
      dz2     :     0.001676  d :     0.013496
      dxz     :     0.001489
      dyz     :     0.002623
      dx2y2   :     0.003533
      dxy     :     0.004175

  7 O s       :     3.771056  s :     3.771056
      pz      :     1.631014  p :     4.566802
      px      :     1.452718
      py      :     1.483070
      dz2     :     0.001853  d :     0.013987
      dxz     :     0.001474
      dyz     :     0.004499
      dx2y2   :     0.003413
      dxy     :     0.002748

  8 C s       :     3.180451  s :     3.180451
      pz      :     0.960595  p :     2.748963
      px      :     0.873473
      py      :     0.914895
      dz2     :     0.004589  d :     0.035291
      dxz     :     0.006276
      dyz     :     0.010740
      dx2y2   :     0.007707
      dxy     :     0.005980

  9 H s       :     0.999257  s :     0.999257
      pz      :     0.006349  p :     0.022034
      px      :     0.004338
      py      :     0.011347

 10 C s       :     3.194704  s :     3.194704
      pz      :     0.836627  p :     2.767349
      px      :     0.973298
      py      :     0.957424
      dz2     :     0.006386  d :     0.034217
      dxz     :     0.004295
      dyz     :     0.010414
      dx2y2   :     0.007157
      dxy     :     0.005965

 11 H s       :     1.018130  s :     1.018130
      pz      :     0.011728  p :     0.023266
      px      :     0.007714
      py      :     0.003823

 12 C s       :     3.225976  s :     3.225976
      pz      :     0.922697  p :     2.826555
      px      :     0.891434
      py      :     1.012425
      dz2     :     0.007999  d :     0.040121
      dxz     :     0.006892
      dyz     :     0.010327
      dx2y2   :     0.008297
      dxy     :     0.006607

 13 C s       :     3.206165  s :     3.206165
      pz      :     0.967630  p :     2.728009
      px      :     0.948612
      py      :     0.811767
      dz2     :     0.006047  d :     0.034450
      dxz     :     0.005085
      dyz     :     0.009092
      dx2y2   :     0.007712
      dxy     :     0.006513

 14 H s       :     1.015242  s :     1.015242
      pz      :     0.005933  p :     0.023215
      px      :     0.004379
      py      :     0.012902

 15 C s       :     3.210709  s :     3.210709
      pz      :     0.889908  p :     2.818308
      px      :     0.967677
      py      :     0.960723
      dz2     :     0.004766  d :     0.033597
      dxz     :     0.004503
      dyz     :     0.008937
      dx2y2   :     0.008588
      dxy     :     0.006803

 16 H s       :     1.002273  s :     1.002273
      pz      :     0.010552  p :     0.022598
      px      :     0.008735
      py      :     0.003311

 17 C s       :     2.824126  s :     2.824126
      pz      :     0.988951  p :     2.792693
      px      :     0.776668
      py      :     1.027074
      dz2     :     0.009342  d :     0.069540
      dxz     :     0.018003
      dyz     :     0.011581
      dx2y2   :     0.014889
      dxy     :     0.015725

 18 H s       :     0.973709  s :     0.973709
      pz      :     0.010590  p :     0.023891
      px      :     0.007208
      py      :     0.006093

 19 O s       :     3.736130  s :     3.736130
      pz      :     1.839073  p :     4.608687
      px      :     1.530698
      py      :     1.238917
      dz2     :     0.001686  d :     0.011688
      dxz     :     0.002297
      dyz     :     0.001069
      dx2y2   :     0.004819
      dxy     :     0.001817

 20 H s       :     0.752226  s :     0.752226
      pz      :     0.017779  p :     0.065650
      px      :     0.013363
      py      :     0.034508

 21 C s       :     3.020575  s :     3.020575
      pz      :     0.914241  p :     2.758800
      px      :     0.887506
      py      :     0.957052
      dz2     :     0.032835  d :     0.138729
      dxz     :     0.020584
      dyz     :     0.035422
      dx2y2   :     0.025324
      dxy     :     0.024564

 22 O s       :     3.718040  s :     3.718040
      pz      :     1.596876  p :     4.686596
      px      :     1.584252
      py      :     1.505468
      dz2     :     0.001946  d :     0.013835
      dxz     :     0.001091
      dyz     :     0.004342
      dx2y2   :     0.003032
      dxy     :     0.003425

 23 O s       :     3.724310  s :     3.724310
      pz      :     1.433266  p :     4.692855
      px      :     1.470910
      py      :     1.788679
      dz2     :     0.004319  d :     0.013874
      dxz     :     0.005011
      dyz     :     0.001808
      dx2y2   :     0.001699
      dxy     :     0.001037



                     *******************************
                     * LOEWDIN POPULATION ANALYSIS *
                     *******************************

----------------------
LOEWDIN ATOMIC CHARGES
----------------------
   0 C :   -0.062659
   1 H :    0.011809
   2 H :    0.007344
   3 C :   -0.042821
   4 C :   -0.064464
   5 O :   -0.394997
   6 O :   -0.394460
   7 O :   -0.235589
   8 C :    0.059004
   9 H :    0.017922
  10 C :   -0.055722
  11 H :    0.013915
  12 C :   -0.006550
  13 C :   -0.031529
  14 H :    0.018361
  15 C :   -0.021030
  16 H :    0.018268
  17 C :    0.050382
  18 H :    0.021347
  19 O :   -0.165195
  20 H :    0.088199
  21 C :   -0.040887
  22 O :   -0.391830
  23 O :   -0.398819

-------------------------------
LOEWDIN REDUCED ORBITAL CHARGES
-------------------------------
  0 C s       :     2.911238  s :     2.911238
      pz      :     1.043744  p :     3.087546
      px      :     0.973020
      py      :     1.070782
      dz2     :     0.014828  d :     0.063874
      dxz     :     0.007320
      dyz     :     0.022561
      dx2y2   :     0.011316
      dxy     :     0.007851

  1 H s       :     0.914171  s :     0.914171
      pz      :     0.027407  p :     0.074020
      px      :     0.016353
      py      :     0.030261

  2 H s       :     0.919232  s :     0.919232
      pz      :     0.042565  p :     0.073424
      px      :     0.018349
      py      :     0.012510

  3 C s       :     2.899330  s :     2.899330
      pz      :     1.037658  p :     2.946439
      px      :     0.898535
      py      :     1.010245
      dz2     :     0.055519  d :     0.197053
      dxz     :     0.015156
      dyz     :     0.056758
      dx2y2   :     0.034047
      dxy     :     0.035572

  4 C s       :     2.873677  s :     2.873677
      pz      :     1.016222  p :     2.870958
      px      :     0.891989
      py      :     0.962747
      dz2     :     0.079324  d :     0.319828
      dxz     :     0.041359
      dyz     :     0.072338
      dx2y2   :     0.063808
      dxy     :     0.063000

  5 O s       :     3.567943  s :     3.567943
      pz      :     1.675117  p :     4.802079
      px      :     1.583109
      py      :     1.543854
      dz2     :     0.003264  d :     0.024975
      dxz     :     0.003446
      dyz     :     0.009110
      dx2y2   :     0.004434
      dxy     :     0.004720

  6 O s       :     3.569388  s :     3.569388
      pz      :     1.757892  p :     4.800651
      px      :     1.508148
      py      :     1.534610
      dz2     :     0.003021  d :     0.024422
      dxz     :     0.002809
      dyz     :     0.004881
      dx2y2   :     0.004975
      dxy     :     0.008736

  7 O s       :     3.566923  s :     3.566923
      pz      :     1.651355  p :     4.643638
      px      :     1.445741
      py      :     1.546542
      dz2     :     0.003188  d :     0.025028
      dxz     :     0.002493
      dyz     :     0.009127
      dx2y2   :     0.006159
      dxy     :     0.004061

  8 C s       :     2.907516  s :     2.907516
      pz      :     0.981697  p :     2.946538
      px      :     0.896967
      py      :     1.067875
      dz2     :     0.010857  d :     0.086941
      dxz     :     0.015035
      dyz     :     0.027418
      dx2y2   :     0.020047
      dxy     :     0.013584

  9 H s       :     0.913631  s :     0.913631
      pz      :     0.021352  p :     0.068448
      px      :     0.013946
      py      :     0.033150

 10 C s       :     2.862284  s :     2.862284
      pz      :     1.038630  p :     3.100809
      px      :     1.003472
      py      :     1.058706
      dz2     :     0.016887  d :     0.092629
      dxz     :     0.010345
      dyz     :     0.029849
      dx2y2   :     0.021320
      dxy     :     0.014229

 11 H s       :     0.914832  s :     0.914832
      pz      :     0.034720  p :     0.071253
      px      :     0.023889
      py      :     0.012644

 12 C s       :     2.912316  s :     2.912316
      pz      :     1.009625  p :     2.993316
      px      :     0.904432
      py      :     1.079260
      dz2     :     0.019016  d :     0.100918
      dxz     :     0.017209
      dyz     :     0.028405
      dx2y2   :     0.021617
      dxy     :     0.014671

 13 C s       :     2.866723  s :     2.866723
      pz      :     1.011595  p :     3.073373
      px      :     0.998331
      py      :     1.063447
      dz2     :     0.015726  d :     0.091432
      dxz     :     0.013698
      dyz     :     0.024192
      dx2y2   :     0.020760
      dxy     :     0.017057

 14 H s       :     0.910757  s :     0.910757
      pz      :     0.019101  p :     0.070882
      px      :     0.013881
      py      :     0.037900

 15 C s       :     2.881779  s :     2.881779
      pz      :     0.997753  p :     3.052911
      px      :     0.996849
      py      :     1.058309
      dz2     :     0.011775  d :     0.086340
      dxz     :     0.011388
      dyz     :     0.023006
      dx2y2   :     0.022710
      dxy     :     0.017461

 16 H s       :     0.913417  s :     0.913417
      pz      :     0.031253  p :     0.068315
      px      :     0.025641
      py      :     0.011420

 17 C s       :     2.834360  s :     2.834360
      pz      :     1.037162  p :     2.954975
      px      :     0.899013
      py      :     1.018799
      dz2     :     0.019305  d :     0.160283
      dxz     :     0.045179
      dyz     :     0.028584
      dx2y2   :     0.033902
      dxy     :     0.033313

 18 H s       :     0.902709  s :     0.902709
      pz      :     0.033035  p :     0.075944
      px      :     0.022687
      py      :     0.020222

 19 O s       :     3.454976  s :     3.454976
      pz      :     1.815083  p :     4.687858
      px      :     1.552634
      py      :     1.320141
      dz2     :     0.003124  d :     0.022361
      dxz     :     0.003403
      dyz     :     0.001681
      dx2y2   :     0.010456
      dxy     :     0.003697

 20 H s       :     0.736457  s :     0.736457
      pz      :     0.049197  p :     0.175343
      px      :     0.036663
      py      :     0.089483

 21 C s       :     2.854917  s :     2.854917
      pz      :     0.955662  p :     2.864317
      px      :     0.902859
      py      :     1.005797
      dz2     :     0.071531  d :     0.321652
      dxz     :     0.049633
      dyz     :     0.086082
      dx2y2   :     0.058189
      dxy     :     0.056218

 22 O s       :     3.570023  s :     3.570023
      pz      :     1.630673  p :     4.797098
      px      :     1.593747
      py      :     1.572678
      dz2     :     0.003003  d :     0.024709
      dxz     :     0.002101
      dyz     :     0.008286
      dx2y2   :     0.005834
      dxy     :     0.005485

 23 O s       :     3.568145  s :     3.568145
      pz      :     1.496843  p :     4.805863
      px      :     1.513429
      py      :     1.795591
      dz2     :     0.006827  d :     0.024810
      dxz     :     0.010622
      dyz     :     0.002968
      dx2y2   :     0.002720
      dxy     :     0.001673



                      *****************************
                      * MAYER POPULATION ANALYSIS *
                      *****************************

  NA   - Mulliken gross atomic population
  ZA   - Total nuclear charge
  QA   - Mulliken gross atomic charge
  VA   - Mayer's total valence
  BVA  - Mayer's bonded valence
  FA   - Mayer's free valence

  ATOM       NA         ZA         QA         VA         BVA        FA
  0 C      5.9714     6.0000     0.0286     3.8358     3.8358     0.0000
  1 H      1.0061     1.0000    -0.0061     1.0258     1.0258     0.0000
  2 H      1.0172     1.0000    -0.0172     1.0250     1.0250    -0.0000
  3 C      6.0162     6.0000    -0.0162     4.0133     4.0133    -0.0000
  4 C      5.9419     6.0000     0.0581     4.4852     4.4852    -0.0000
  5 O      8.4267     8.0000    -0.4267     2.0639     2.0639    -0.0000
  6 O      8.4318     8.0000    -0.4318     2.0555     2.0555     0.0000
  7 O      8.3518     8.0000    -0.3518     2.1190     2.1190    -0.0000
  8 C      5.9647     6.0000     0.0353     3.9192     3.9192     0.0000
  9 H      1.0213     1.0000    -0.0213     0.9964     0.9964     0.0000
 10 C      5.9963     6.0000     0.0037     3.8890     3.8890    -0.0000
 11 H      1.0414     1.0000    -0.0414     1.0307     1.0307    -0.0000
 12 C      6.0927     6.0000    -0.0927     3.6370     3.6370     0.0000
 13 C      5.9686     6.0000     0.0314     3.8631     3.8631    -0.0000
 14 H      1.0385     1.0000    -0.0385     1.0306     1.0306    -0.0000
 15 C      6.0626     6.0000    -0.0626     3.9002     3.9002    -0.0000
 16 H      1.0249     1.0000    -0.0249     0.9935     0.9935    -0.0000
 17 C      5.6864     6.0000     0.3136     3.8184     3.8184     0.0000
 18 H      0.9976     1.0000     0.0024     1.0808     1.0808     0.0000
 19 O      8.3565     8.0000    -0.3565     2.0281     2.0281    -0.0000
 20 H      0.8179     1.0000     0.1821     1.0062     1.0062     0.0000
 21 C      5.9181     6.0000     0.0819     4.5576     4.5576     0.0000
 22 O      8.4185     8.0000    -0.4185     2.0804     2.0804     0.0000
 23 O      8.4310     8.0000    -0.4310     2.0554     2.0554     0.0000

  Mayer bond orders larger than 0.100000
B(  0-C ,  1-H ) :   0.9280 B(  0-C ,  2-H ) :   0.9167 B(  0-C ,  3-C ) :   1.4732 
B(  0-C ,  8-C ) :   0.1121 B(  0-C , 12-C ) :   0.2897 B(  3-C ,  4-C ) :   0.8212 
B(  3-C ,  7-O ) :   1.5996 B(  4-C ,  5-O ) :   1.8586 B(  4-C ,  6-O ) :   1.7952 
B(  5-O ,  6-O ) :   0.1183 B(  6-O , 18-H ) :   0.1052 B(  7-O ,  8-C ) :   0.2948 
B(  8-C ,  9-H ) :   0.9502 B(  8-C , 10-C ) :   1.4406 B(  8-C , 17-C ) :   0.9831 
B( 10-C , 11-H ) :   0.9635 B( 10-C , 12-C ) :   1.3587 B( 12-C , 13-C ) :   1.0775 
B( 12-C , 21-C ) :   0.8282 B( 13-C , 14-H ) :   0.9784 B( 13-C , 15-C ) :   1.7420 
B( 15-C , 16-H ) :   0.9664 B( 15-C , 17-C ) :   0.9794 B( 17-C , 18-H ) :   0.8457 
B( 17-C , 19-O ) :   1.0044 B( 19-O , 20-H ) :   0.9668 B( 21-C , 22-O ) :   1.8855 
B( 21-C , 23-O ) :   1.8408 B( 22-O , 23-O ) :   0.1142 

-------
TIMINGS
-------

Total SCF time: 0 days 0 hours 0 min 19 sec 

Total time                  ....      19.181 sec
Sum of individual times     ....      18.958 sec  ( 98.8%)

SCF preparation             ....       1.485 sec  (  7.7%)
Fock matrix formation       ....      16.833 sec  ( 87.8%)
  Startup                   ....       0.086 sec  (  0.5% of F)
  Split-RI-J                ....       0.810 sec  (  4.8% of F)
  Chain of spheres X        ....      13.311 sec  ( 79.1% of F)
  XC integration            ....       1.348 sec  (  8.0% of F)
    Basis function eval.    ....       0.354 sec  ( 26.2% of XC)
    Density eval.           ....       0.257 sec  ( 19.1% of XC)
    XC-Functional eval.     ....       0.058 sec  (  4.3% of XC)
    XC-Potential eval.      ....       0.352 sec  ( 26.1% of XC)
  CPCM terms                ....       1.033 sec  (  6.1% of F)
Diagonalization             ....       0.000 sec  (  0.0%)
Density matrix formation    ....       0.077 sec  (  0.4%)
Total Energy calculation    ....       0.060 sec  (  0.3%)
Population analysis         ....       0.137 sec  (  0.7%)
Orbital Transformation      ....       0.095 sec  (  0.5%)
Orbital Orthonormalization  ....       0.000 sec  (  0.0%)
DIIS solution               ....       0.117 sec  (  0.6%)
SOSCF solution              ....       0.154 sec  (  0.8%)
Finished LeanSCF after  19.5 sec

Maximum memory used throughout the entire LEANSCF-calculation: 31.1 MB


-------------------------------------------------------------------------------
                          DFT DISPERSION CORRECTION                            
                                                                               
                              DFTD3 V3.1  Rev 1                                
                          USING Becke-Johnson damping                          
-------------------------------------------------------------------------------
The B3LYP functional is recognized
Active option DFTDOPT                   ...         4   

molecular C6(AA) [au] = 7107.114447 


            DFT-D V3
 parameters
 s6 scaling factor         :     1.0000 
 a1 scaling factor         :     0.3981 
 s8 scaling factor         :     1.9889 
 a2 scaling factor         :     4.4211 
 ad hoc parameters k1-k3   :    16.0000     1.3333    -4.0000 

 Edisp/kcal,au: -35.335923653620  -0.056311372728 
 E6   /kcal   : -16.493677098 
 E8   /kcal   : -18.842246555 
 % E8         :  53.323203717 

-------------------------   ----------------
Dispersion correction           -0.056311373
-------------------------   ----------------


-------------------------   --------------------
FINAL SINGLE POINT ENERGY      -836.340752287366
-------------------------   --------------------



           ************************************************************
           *        Program running with 8 parallel MPI-processes     *
           *              working on a common directory               *
           ************************************************************

------------------------------------------------------------------------------
                              ORCA PROPERTY CALCULATIONS
------------------------------------------------------------------------------

GBWName                                 ... polf_TS_bare.gbw
Number of atoms                         ...     24
Number of basis functions               ...    264
Max core memory                         ...   3000 MB

Electric properties:
Dipole moment                           ... YES
Quadrupole moment                       ...  NO
Static polarizability (Dipole/Dipole)   ...  NO
Static polarizability (Dipole/Quad.)    ...  NO
Static polarizability (Quad./Quad.)     ...  NO
Static polarizability (Velocity)        ...  NO

Atomic electric properties:
Dipole moment                           ...  NO
Quadrupole moment                       ...  NO
Static polarizability                   ...  NO

Choice of electric origin               ... Center of mass
Position of electric origin             ...    40.889474    76.450785   107.817479

General magnetic properties:
Magnetizability                         ...  NO

EPR properties:
g-Tensor (aka g-matrix)                 ...  NO
Zero-Field splitting spin-orbit         ...  NO
Zero-field splitting spin-spin          ...  NO
Hyperfine couplings                     ...  NO (   0 nuclei)
Quadrupole couplings                    ...  NO (   0 nuclei)
Contact density                         ...  NO (   0 nuclei)

NMR properties:
Chemical shifts                         ...  NO (   0 nuclei)
Spin-rotation constants                 ...  NO (   0 nuclei)
Spin-spin couplings                     ...  NO (   0 nuclei,    0 pairs)

Choice of magnetic origin               ... GIAO
Position of magnetic origin             ...     0.000000     0.000000     0.000000

Properties with geometric perturbations:
SCF Hessian                             ...  NO
IR spectrum                             ...  NO
VCD spectrum                            ...  NO
X-ray spectroscopy properties:
SCF XES/XAS/RIXS spectra                ...  NO


-------------
DIPOLE MOMENT
-------------

Method             : SCF
Type of density    : Electron Density
Multiplicity       :   1
Irrep              :   0
Energy             :  -836.2844409146376847 Eh
Relativity type    : 
Basis              : AO
                                X                 Y                 Z
Electronic contribution:     -0.713371387       0.736679822      -0.414302172
Nuclear contribution   :      2.996186626      -4.198849302       1.920793271
                        -----------------------------------------
Total Dipole Moment    :      2.282815239      -3.462169480       1.506491099
                        -----------------------------------------
Magnitude (a.u.)       :      4.412185213
Magnitude (Debye)      :     11.214883550



--------------------
Rotational spectrum 
--------------------
 
Rotational constants in cm-1:             0.022313             0.017053             0.012774 
Rotational constants in MHz :           668.940631           511.239954           382.940473 

Dipole components along the rotational axes: 
x,y,z [a.u.] :    -1.855980     3.853681     1.082525 
x,y,z [Debye]:    -4.717527     9.795278     2.751559 

 

Dipole moment calculation done in   0.0 sec 

Maximum memory used throughout the entire PROP-calculation: 13.9 MB

--------------------------------
SUGGESTED CITATIONS FOR THIS RUN
--------------------------------

Below you find a list of papers that are relevant to this ORCA run
We neither can nor want to force you to cite these papers, but we appreciate if you do
You receive ORCA, which is the product of decades of hard work by many enthusiastic individuals, for free
The only thing we kindly ask in return is that you cite our papers,
We deeply appreciate it, if you show your appreciation for ORCA by not just citing the generic ORCA reference.

Please note that relegating all ORCA citations to the supporting information does *not* help us.
SI sections are not indexed - citations you put there will not count into any citation statistics
But we need these citations in order to attract the funding resources that allow us to do what we are doing

Therefore, if you are a happy ORCA user, please consider citing a few of the papers listed below in the main body of your paper

In addition to the list printed below, the program has created the file polf_TS_bare.bibtex that contains the list in bibtex format
You can import this file easily into all common literature databanks and citation aid programs


List of essential papers. We consider these as the minimum necessary citations

  1. Neese,F.
     Software update: the ORCA program system, version 5.0
     WIRES Comput. Molec. Sci., 2022 12(1)e1606
     doi.org/10.1002/wcms.1606

List of papers to cite with high priority. The work reported in these papers was absolutely
necessary for this run to complete.
Our perspective: the developers of density functionals and basis sets usually get cited in chemistry papers
Good! But without the algorithms to do something with them, the functionals or basis sets would not do anything.
Hence, in our opinion, the algorithm design and method developments papers are equally worthy of getting cited

  1. Neese,F.
     An improvement of the resolution of the identity approximation for the formation of the Coulomb matrix
     J. Comp. Chem., 2003 24(14)1740-1747
     doi.org/10.1002/jcc.10318
  2. Neese,F.; Wennmohs,F.; Hansen,A.; Becker,U.
     Efficient, approximate and parallel Hartree-Fock and hybrid DFT calculations. A 'chain-of-spheres' algorithm for the Hartree-Fock exchange
     Chem. Phys., 2009 356(1-3)98-109
     doi.org/10.1016/j.chemphys.2008.10.036
  3. Garcia-Rates,M.; Neese,F.
     Effect of the Solute Cavity on the Solvation Energy and its Derivatives within the Framework of the Gaussian Charge Scheme
     J. Comput. Chem., 2020 41 922-939
     doi.org/10.1002/jcc.26139
  4. Helmich-Paris,B.; de Souza,B.; Neese,F.; Izsák,R.
     An improved chain of spheres for exchange algorithm
     J. Chem. Phys., 2021 155 104109
     doi.org/doi: 10.1063/5.0058766.
  5. Neese,F.
     The SHARK Integral Generation and Digestion System
     J. Comp. Chem., 2022  1-16
     doi.org/10.1002/jcc.26942
  6. Grimme,S.; Antony,J.; Ehrlich,S.; Krieg,H.
     A consistent and accurate ab initio parametrization of density functional dispersion correction (DFT-D) for the 94 elements H-Pu
     J. Chem. Phys., 2010 132 154104
     doi.org/10.1063/1.3382344
  7. Grimme,S.; Ehrlich,S.; Goerigk,L.
     Effect of the damping function in dispersion corrected density functional theory
     J. Comput. Chem., 2011 32(7)1456-1465
     doi.org/10.1002/jcc.21759

List of suggested additional citations. These are papers that are important in the 'surrounding' of 
of this run, or papers that preceded the highly important papers. If you like your results we are grateful for a citation.

  1. Izsak,R.; Neese,F.
     An overlap fitted chain of spheres exchange method
     J. Chem. Phys., 2011 135 144105
     doi.org/10.1063/1.3646921
  2. Izsak,R.; Hansen,A.; Neese,F.
     The resolution of identity and chain of spheres approximations for the LPNO-CCSD singles Fock term
     Molec. Phys., 2012 110 2413-2417
     doi.org/10.1080/00268976.2012.687466
  3. Neese,F.
     The ORCA program system
     WIRES Comput. Molec. Sci., 2012 2(1)73-78
     doi.org/10.1002/wcms.81
  4. Izsak,R.; Neese,F.; Klopper,W.
     Robust fitting techniques in the chain of spheres approximation to the Fock exchange: The role of the complementary space
     J. Chem. Phys., 2013 139 
     doi.org/10.1063/1.4819264
  5. Neese,F.
     Software update: the ORCA program system, version 4.0
     WIRES Comput. Molec. Sci., 2018 8(1)1-6
     doi.org/10.1002/wcms.1327
  6. Neese,F.; Wennmohs,F.; Becker,U.; Riplinger,C.
     The ORCA quantum chemistry program package
     J. Chem. Phys., 2020 152 Art. No. L224108
     doi.org/10.1063/5.0004608

List of optional additional citations

  1. Neese,F.
     Approximate second-order SCF convergence for spin unrestricted wavefunctions
     Chem. Phys. Lett., 2000 325(1-3)93-98
     doi.org/10.1016/s0009-2614(00)00662-x

Timings for individual modules:

Sum of individual times          ...       31.130 sec (=   0.519 min)
Startup calculation              ...        6.792 sec (=   0.113 min)  21.8 %
SCF iterations                   ...       22.588 sec (=   0.376 min)  72.6 %
Property calculations            ...        1.749 sec (=   0.029 min)   5.6 %
                             ****ORCA TERMINATED NORMALLY****
TOTAL RUN TIME: 0 days 0 hours 0 minutes 44 seconds 731 msec
