
                                 *****************
                                 * O   R   C   A *
                                 *****************

                                            #,                                       
                                            ###                                      
                                            ####                                     
                                            #####                                    
                                            ######                                   
                                           ########,                                 
                                     ,,################,,,,,                         
                               ,,#################################,,                 
                          ,,##########################################,,             
                       ,#########################################, ''#####,          
                    ,#############################################,,   '####,        
                  ,##################################################,,,,####,       
                ,###########''''           ''''###############################       
              ,#####''   ,,,,##########,,,,          '''####'''          '####       
            ,##' ,,,,###########################,,,                        '##       
           ' ,,###''''                  '''############,,,                           
         ,,##''                                '''############,,,,        ,,,,,,###''
      ,#''                                            '''#######################'''  
     '                                                          ''''####''''         
             ,#######,   #######,   ,#######,      ##                                
            ,#'     '#,  ##    ##  ,#'     '#,    #''#        ,####,   ,####,        
            ##       ##  ##   ,#'  ##            #'  '#       #'       #'  '#        
            ##       ##  #######   ##           ,######,      #####,   #    #        
            '#,     ,#'  ##    ##  '#,     ,#' ,#      #,     #,   #   #,  ,#        
             '#######'   ##     ##  '#######'  #'      '#     '####' # '####'        



                #########################################################
                #                        -***-                          #
                #          Department of theory and spectroscopy        #
                #                                                       #
                #                      Frank Neese                      #
                #                                                       #
                #     Directorship, Architecture, Infrastructure        #
                #                    SHARK, DRIVERS                     #
                #        Core code/Algorithms in most modules           #
                #                                                       #
                #        Max Planck Institute fuer Kohlenforschung      #
                #                Kaiser Wilhelm Platz 1                 #
                #                 D-45470 Muelheim/Ruhr                 #
                #                      Germany                          #
                #                                                       #
                #                  All rights reserved                  #
                #                        -***-                          #
                #########################################################


                         Program Version 6.0.1  -  RELEASE   -


 With contributions from (in alphabetic order):
[Max-Planck-Institut fuer Kohlenforschung]                               
  Daniel Aravena         : Magnetic Suceptibility                        
  Michael Atanasov       : Ab Initio Ligand Field Theory (pilot matlab implementation)
  Alexander A. Auer      : GIAO ZORA, VPT2 properties, NMR spectrum      
  Ute Becker             : All parallelization in ORCA, NUMFREQ, NUMCALC 
  Giovanni Bistoni       : ED, misc. LED, open-shell LED, HFLD           
  Martin Brehm           : Molecular dynamics                            
  Dmytro Bykov           : pre 5.0 version of the SCF Hessian            
  Marcos Casanova-Páez   : Triplet and SCS-CIS(D). UHF-(DLPNO)-IP/EA/STEOM-CCSD. UHF-CVS-IP/STEOM-CCSD   
  Vijay G. Chilkuri      : MRCI spin determinant printing, contributions to CSF-ICE 
  Pauline Colinet        : FMM embedding                                 
  Dipayan Datta          : RHF DLPNO-CCSD density                        
  Achintya Kumar Dutta   : EOM-CC, STEOM-CC                              
  Nicolas Foglia         : Exact transition moments, OPA infrastructure, MCD improvements    
  Dmitry Ganyushin       : Spin-Orbit,Spin-Spin,Magnetic field MRCI      
  Miquel Garcia-Rates    : C-PCM and meta-GGA Hessian, CCSD/C-PCM, Gaussian charge scheme 
  Tiago L. C. Gouveia    : GS-ROHF, GS-ROCIS                             
  Yang Guo               : DLPNO-NEVPT2, F12-NEVPT2, CIM, IAO-localization        
  Andreas Hansen         : Spin unrestricted coupled pair/coupled cluster methods 
  Ingolf Harden          : AUTO-CI MPn and infrastructure                
  Benjamin Helmich-Paris : MC-RPA, TRAH-(SCF,CASSCF), AVAS, COSX integrals, SCF dyn. polar. 
  Lee Huntington         : MR-EOM, pCC                                   
  Robert Izsak           : Overlap fitted RIJCOSX, COSX-SCS-MP3, EOM     
  Riya Kayal             : Wick's Theorem for AUTO-CI, AUTO-CI UHF-CCSDT 
  Emily Kempfer          : AUTO-CI, RHF CISDT and CCSDT                  
  Christian Kollmar      : KDIIS, OOCD, Brueckner-CCSD(T), CCSD density, CASPT2, CASPT2-K, improved NEVPT2 
  Axel Koslowski         : Symmetry handling                             
  Simone Kossmann        : meta-GGA functionals, TD-DFT gradient, OOMP2, (MP2 Hessian; deprecated post 5.0) 
  Lucas Lang             : DCDCAS                                        
  Marvin Lechner         : AUTO-CI (C++ implementation), FIC-MRCC        
  Spencer Leger          : CASSCF response                               
  Dagmar Lenk            : GEPOL surface, SMD, ORCA-2-JSON               
  Dimitrios Liakos       : Extrapolation schemes; Compound Job, initial MDCI parallelization 
  Dimitrios Manganas     : Further ROCIS development; embedding schemes. LFT, Crystal Embedding 
  Dimitrios Pantazis     : SARC Basis sets                               
  Anastasios Papadopoulos: AUTO-CI, single reference methods and gradients 
  Taras Petrenko         : pre 6.0 DFT Hessian and TD-DFT gradient, (ASA, deprecated), ECA, 1-Electron XAS/XES, NRVS 
  Peter Pinski           : DLPNO-MP2, DLPNO-MP2 Gradient                 
  Christoph Reimann      : Effective Core Potentials                     
  Marius Retegan         : Local ZFS, SOC                                
  Christoph Riplinger    : Optimizer, TS searches, QM/MM, DLPNO-CCSD(T), (RO)-DLPNO pert. Triples 
  Michael Roemelt        : Original ROCIS implementation                 
  Masaaki Saitow         : Open-shell DLPNO-CCSD energy and density      
  Barbara Sandhoefer     : DKH picture change effects                    
  Kantharuban Sivalingam : CASSCF convergence/infrastructure, NEVPT2 and variants, FIC-MRCI 
  Bernardo de Souza      : ESD, SOC TD-DFT                               
  Georgi L. Stoychev     : AutoAux, RI-MP2 NMR, DLPNO-MP2 response, X2C  
  Van Anh Tran           : RI-MP2 g-tensors                              
  Willem Van den Heuvel  : Paramagnetic NMR                              
  Zikuan Wang            : NOTCH, Electric field optimization            
  Frank Wennmohs         : Technical directorship and infrastructure     
  Hang Xu                : AUTO-CI-Response properties                   
                                                                         
[FACCTs GmbH]                                                            
  Markus Bursch, Miquel Garcia-Rates, Christoph Riplinger, Bernardo de Souza, Georgi L. Stoychev 
                                                                 
  APM, Basis sets (HGBS, AHGBS, def-TZVP (Ac-Lr), def2-XVPD (La-Lu)), CI-OPT, improved COSX, DLPNO-Multilevel,           
  DOCKER, DRACO, updates on ESD, GOAT, IRC, LR-CPCM, MBIS, meta-GGA TD-DFT gradient, ML-optimized integration grids, 
  MM, NACMEs, nearIR, NEB, NEB-TS, NL-DFT gradient (VV10), 2- and 3-layer-ONIOM, interface openCOSMO-RS, QMMM,   
  Crystal-QMMM, SF, symmetry and pop. for TD-DFT, r2SCAN hybrids, SOLVATOR                                   
                                                                         
[Other institutions]                                                     
  V. Asgeirsson          : NEB                                           
  Christoph Bannwarth    : sTDA-DFT, sTD-DFT, PBEh-3c, B97-3c, D3        
  Sebastian Ehlert       : rSCAN, r2SCAN, r2SCAN-3c, D4, dhf basis sets  
  Marvin Friede          : D4 for Fr, Ra, Ac-Lr                          
  Lars Goerigk           : TD-DFT with DH, B97 family of functionals     
  Stefan Grimme          : VdW corrections, initial TS optimization, DFT functionals, gCP, sTDA/sTD-DF 
  Waldemar Hujo          : DFT-NL                                        
  H. Jonsson             : NEB                                           
  Holger Kruse           : gCP                                           
  Marcel Mueller         : wB97X-3c, vDZP basis set                      
  Hagen Neugebauer       : wr2SCAN                                       
  Tobias Risthaus        : range-separated hybrid DFT                    
  Lukas Wittmann         : regularized MP2, r2SCAN double-hybrids, wr2SCAN        
                                                                         
We gratefully acknowledge several colleagues who have allowed us to      
interface, adapt or use parts of their codes:                            
  Ed Valeev, F. Pavosevic, A. Kumar             : LibInt (2-el integral package), F12 methods 
  Garnet Chan, S. Sharma, J. Yang, R. Olivares  : DMRG                   
  Ulf Ekstrom                                   : XCFun DFT Library      
  Mihaly Kallay                                 : mrcc  (arbitrary order and MRCC methods)
  Frank Weinhold                                : gennbo (NPA and NBO analysis)           
  Simon Mueller                                 : openCOSMO-RS                            
  Christopher J. Cramer and Donald G. Truhlar   : smd solvation model                     
  S Lehtola, MJT Oliveira, MAL Marques          : LibXC Library                           
  Liviu Ungur et al                             : ANISO software                          


 Your calculation uses the libint2 library for the computation of 2-el integrals
 For citations please refer to: http://libint.valeyev.net

 Your ORCA version has been built with support for libXC version: 6.2.2
 For citations please refer to: https://libxc.gitlab.io

 This ORCA versions uses:
   CBLAS   interface :  Fast vector & matrix operations
   LAPACKE interface :  Fast linear algebra routines
   SCALAPACK package :  Parallel linear algebra routines
   Shared memory     :  Shared parallel matrices
   BLAS/LAPACK       :  OpenBLAS 0.3.27  USE64BITINT DYNAMIC_ARCH NO_AFFINITY Bulldozer SINGLE_THREADED
        Core in use  :  Bulldozer
   Copyright (c) 2011-2014, The OpenBLAS Project


NOTE: MaxCore=3000 MB was set to SCF,MP2,MDCI,CIPSI,MRCI and CIS
      => If you want to overwrite this, your respective input block should be placed after the MaxCore statement
Your calculation utilizes the atom-pairwise dispersion correction
with the Becke-Johnson damping scheme (D3BJ)


================================================================================

----- Orbital basis set information -----
Your calculation utilizes the basis: def2-SVP
   F. Weigend and R. Ahlrichs, Phys. Chem. Chem. Phys. 7, 3297 (2005).

----- AuxJ basis set information -----
Your calculation utilizes the auxiliary basis: def2/J
   F. Weigend, Phys. Chem. Chem. Phys. 8, 1057 (2006).

================================================================================
                                        WARNINGS
                       Please study these warnings very carefully!
================================================================================

WARNING: Old DensityContainer found on disk!
         Will remove this file - 
         If you want to keep old densities, please start your calculation with a different basename. 


WARNING: The chosen methods will break translational/rotational symmetry
  ===> : Will NOT project out the translational and rotational degrees of freedom
         of the Hessians, in case Hessians are calculated!

WARNING: The chosen methods will break translational symmetry
  ===> : Will NOT exploit translational invariance of the Hessians,
         in case Hessians are calculated!

WARNING: The chosen methods will break translational symmetry
  ===> : Will NOT make the numerical gradients translationally invariant,
         in case numerical gradients are calculated!

================================================================================
                                       INPUT FILE
================================================================================
NAME = polf_TS_pc.inp
|  1> ! B3LYP D3BJ def2-SVP def2/J RIJCOSX CPCM KeepDens
|  2> %maxcore 3000
|  3> %pal nprocs 8 end
|  4> %cpcm epsilon 4.0 end
|  5> %scf MaxIter 300 end
|  6> %pointcharges "design_K2_free.pc"
|  7> * xyz -2 1
|  8> C     19.71825481    41.08376387    56.97302294
|  9> H     19.51998914    41.92482362    56.30836658
| 10> H     19.37641528    41.12968172    58.00544975
| 11> C     20.13166662    39.88130127    56.41496061
| 12> C     20.50252906    39.85764400    54.91806968
| 13> O     20.06536473    40.77641660    54.18479265
| 14> O     21.21261668    38.89130216    54.53088373
| 15> O     20.32721824    38.82622612    57.10753495
| 16> C     22.16620765    38.97618677    58.25575746
| 17> H     21.95657718    38.06499850    58.81845878
| 18> C     21.84499979    40.21468356    58.78898825
| 19> H     21.26724075    40.29993641    59.71060709
| 20> C     22.02567517    41.36546521    58.01391215
| 21> C     22.90608916    41.29169284    56.85015884
| 22> H     23.12581168    42.22633481    56.33391133
| 23> C     23.45299888    40.12649983    56.45353382
| 24> H     24.15495295    40.08949566    55.61550470
| 25> C     23.13109136    38.81190798    57.10043805
| 26> H     22.61436549    38.21503319    56.33072233
| 27> O     24.33475109    38.17937608    57.52900571
| 28> H     24.29675361    37.21522165    57.38386253
| 29> C     21.60247124    42.73276948    58.55430593
| 30> O     22.00092891    43.75937103    57.94572530
| 31> O     20.85458622    42.74962686    59.56440370
| 32> *
| 33> 
| 34>                          ****END OF INPUT****
================================================================================

                       ****************************
                       * Single Point Calculation *
                       ****************************

---------------------------------
CARTESIAN COORDINATES (ANGSTROEM)
---------------------------------
  C     19.718255   41.083764   56.973023
  H     19.519989   41.924824   56.308367
  H     19.376415   41.129682   58.005450
  C     20.131667   39.881301   56.414961
  C     20.502529   39.857644   54.918070
  O     20.065365   40.776417   54.184793
  O     21.212617   38.891302   54.530884
  O     20.327218   38.826226   57.107535
  C     22.166208   38.976187   58.255757
  H     21.956577   38.064999   58.818459
  C     21.845000   40.214684   58.788988
  H     21.267241   40.299936   59.710607
  C     22.025675   41.365465   58.013912
  C     22.906089   41.291693   56.850159
  H     23.125812   42.226335   56.333911
  C     23.452999   40.126500   56.453534
  H     24.154953   40.089496   55.615505
  C     23.131091   38.811908   57.100438
  H     22.614365   38.215033   56.330722
  O     24.334751   38.179376   57.529006
  H     24.296754   37.215222   57.383863
  C     21.602471   42.732769   58.554306
  O     22.000929   43.759371   57.945725
  O     20.854586   42.749627   59.564404

----------------------------
CARTESIAN COORDINATES (A.U.)
----------------------------
  NO LB      ZA    FRAG     MASS         X           Y           Z
   0 C     6.0000    0    12.011   37.262101   77.637062  107.663410
   1 H     1.0000    0     1.008   36.887434   79.226435  106.407392
   2 H     1.0000    0     1.008   36.616118   77.723834  109.614414
   3 C     6.0000    0    12.011   38.043337   75.364737  106.608825
   4 C     6.0000    0    12.011   38.744165   75.320032  103.780111
   5 O     8.0000    0    15.999   37.918044   77.056260  102.394419
   6 O     8.0000    0    15.999   40.086036   73.493910  103.048436
   7 O     8.0000    0    15.999   38.412876   73.370934  107.917601
   8 C     6.0000    0    12.011   41.888062   73.654319  110.087427
   9 H     1.0000    0     1.008   41.491918   71.932422  111.150779
  10 C     6.0000    0    12.011   41.281067   75.994738  111.095087
  11 H     1.0000    0     1.008   40.189261   76.155843  112.836695
  12 C     6.0000    0    12.011   41.622494   78.169401  109.630406
  13 C     6.0000    0    12.011   43.286235   78.029991  107.431231
  14 H     1.0000    0     1.008   43.701451   79.796208  106.455664
  15 C     6.0000    0    12.011   44.319745   75.828095  106.681718
  16 H     1.0000    0     1.008   45.646246   75.758168  105.098073
  17 C     6.0000    0    12.011   43.711428   73.343877  107.904190
  18 H     1.0000    0     1.008   42.734957   72.215947  106.449638
  19 O     8.0000    0    15.999   45.986015   72.148565  108.714066
  20 H     1.0000    0     1.008   45.914210   70.326577  108.439785
  21 C     6.0000    0    12.011   40.822754   80.753231  110.651602
  22 O     8.0000    0    15.999   41.575730   82.693227  109.501551
  23 O     8.0000    0    15.999   39.409457   80.785087  112.560410

--------------------------------
INTERNAL COORDINATES (ANGSTROEM)
--------------------------------
 C      0   0   0     0.000000000000     0.00000000     0.00000000
 H      1   0   0     1.090164600351     0.00000000     0.00000000
 H      1   2   0     1.088516344033   119.24923047     0.00000000
 C      1   2   3     1.388617727530   118.50237778   166.11898254
 C      4   1   2     1.542329754671   118.35368881     9.49117571
 O      5   4   1     1.254173410921   118.18972166   339.70880403
 O      5   4   1     1.260140444430   116.45297913   160.72684327
 O      4   1   2     1.277138686541   122.88981716   183.33020584
 C      8   4   1     2.173196995008   111.04392456   285.93403847
 H      9   8   4     1.091256969218    92.99613263   171.27729619
 C      9   8   4     1.386139914861    93.94593351    50.70196512
 H     11   9   8     1.091079668483   121.16206312    87.85057469
 C     11   9   8     1.399172955608   119.46199013   280.64841797
 C     13  11   9     1.461127278131   118.52174131   341.62063313
 H     14  13  11     1.090112420561   117.08755655   187.18899785
 C     14  13  11     1.346883958949   121.52659581     5.38517841
 H     16  14  13     1.093801458655   121.02902228   183.45656043
 C     16  14  13     1.500087086242   122.95633199     4.54201555
 H     18  16  14     1.102600303501   105.89728924   114.49387411
 O     18  16  14     1.425680044519   109.71051682   234.86126645
 H     20  18  16     0.975758226240   111.14946637   218.36180159
 C     13  11   9     1.529917635231   120.24291991   176.49136362
 O     22  13  11     1.258193006043   118.08343232   167.05558190
 O     22  13  11     1.256946172022   117.41450924   345.62360757

---------------------------
INTERNAL COORDINATES (A.U.)
---------------------------
 C      0   0   0     0.000000000000     0.00000000     0.00000000
 H      1   0   0     2.060112535560     0.00000000     0.00000000
 H      1   2   0     2.056997782519   119.24923047     0.00000000
 C      1   2   3     2.624107209740   118.50237778   166.11898254
 C      4   1   2     2.914580844526   118.35368881     9.49117571
 O      5   4   1     2.370044271086   118.18972166   339.70880403
 O      5   4   1     2.381320330251   116.45297913   160.72684327
 O      4   1   2     2.413442352598   122.88981716   183.33020584
 C      8   4   1     4.106747155626   111.04392456   285.93403847
 H      9   8   4     2.062176813556    92.99613263   171.27729619
 C      9   8   4     2.619424822384    93.94593351    50.70196512
 H     11   9   8     2.061841763723   121.16206312    87.85057469
 C     11   9   8     2.644053700089   119.46199013   280.64841797
 C     13  11   9     2.761130402470   118.52174131   341.62063313
 H     14  13  11     2.060013930047   117.08755655   187.18899785
 C     14  13  11     2.545241816585   121.52659581     5.38517841
 H     16  14  13     2.066985201741   121.02902228   183.45656043
 C     16  14  13     2.834753770030   122.95633199     4.54201555
 H     18  16  14     2.083612608795   105.89728924   114.49387411
 O     18  16  14     2.694144838737   109.71051682   234.86126645
 H     20  18  16     1.843915820515   111.14946637   218.36180159
 C     13  11   9     2.891125338043   120.24291991   176.49136362
 O     22  13  11     2.377640205036   118.08343232   167.05558190
 O     22  13  11     2.375284030202   117.41450924   345.62360757

---------------------
BASIS SET INFORMATION
---------------------
There are 3 groups of distinct atoms

 Group   1 Type C   : 7s4p1d contracted to 3s2p1d pattern {511/31/1}
 Group   2 Type H   : 4s1p contracted to 2s1p pattern {31/1}
 Group   3 Type O   : 7s4p1d contracted to 3s2p1d pattern {511/31/1}

Atom   0C    basis set group =>   1
Atom   1H    basis set group =>   2
Atom   2H    basis set group =>   2
Atom   3C    basis set group =>   1
Atom   4C    basis set group =>   1
Atom   5O    basis set group =>   3
Atom   6O    basis set group =>   3
Atom   7O    basis set group =>   3
Atom   8C    basis set group =>   1
Atom   9H    basis set group =>   2
Atom  10C    basis set group =>   1
Atom  11H    basis set group =>   2
Atom  12C    basis set group =>   1
Atom  13C    basis set group =>   1
Atom  14H    basis set group =>   2
Atom  15C    basis set group =>   1
Atom  16H    basis set group =>   2
Atom  17C    basis set group =>   1
Atom  18H    basis set group =>   2
Atom  19O    basis set group =>   3
Atom  20H    basis set group =>   2
Atom  21C    basis set group =>   1
Atom  22O    basis set group =>   3
Atom  23O    basis set group =>   3
---------------------------------
AUXILIARY/J BASIS SET INFORMATION
---------------------------------
There are 3 groups of distinct atoms

 Group   1 Type C   : 12s5p4d2f1g contracted to 6s4p3d1f1g pattern {711111/2111/211/2/1}
 Group   2 Type H   : 5s2p1d contracted to 3s1p1d pattern {311/2/1}
 Group   3 Type O   : 12s5p4d2f1g contracted to 6s4p3d1f1g pattern {711111/2111/211/2/1}

Atom   0C    basis set group =>   1
Atom   1H    basis set group =>   2
Atom   2H    basis set group =>   2
Atom   3C    basis set group =>   1
Atom   4C    basis set group =>   1
Atom   5O    basis set group =>   3
Atom   6O    basis set group =>   3
Atom   7O    basis set group =>   3
Atom   8C    basis set group =>   1
Atom   9H    basis set group =>   2
Atom  10C    basis set group =>   1
Atom  11H    basis set group =>   2
Atom  12C    basis set group =>   1
Atom  13C    basis set group =>   1
Atom  14H    basis set group =>   2
Atom  15C    basis set group =>   1
Atom  16H    basis set group =>   2
Atom  17C    basis set group =>   1
Atom  18H    basis set group =>   2
Atom  19O    basis set group =>   3
Atom  20H    basis set group =>   2
Atom  21C    basis set group =>   1
Atom  22O    basis set group =>   3
Atom  23O    basis set group =>   3

Checking for AutoStart:
The File: polf_TS_pc.gbw exists
Trying to determine its content:
     ... Fine, the file contains calculation information
     ... Fine, the calculation information was read
     ... Fine, the file contains a basis set
     ... Fine, the basis set was read
     ... Fine, the file contains a geometry
     ... Fine, the geometry was read
     ... Fine, the file contains a set of orbitals
     ... Fine, the orbitals can be read
     => possible old guess file was deleted
     => GBW file was renamed to GES file
     => GES file is set as startup file
     => Guess is set to MORead
     ... now leaving AutoStart



           ************************************************************
           *        Program running with 8 parallel MPI-processes     *
           *              working on a common directory               *
           ************************************************************
------------------------------------------------------------------------------
                             ORCA STARTUP CALCULATIONS
                           -- RI-GTO INTEGRALS CHOSEN --
------------------------------------------------------------------------------
------------------------------------------------------------------------------
                   ___                                                        
                  /   \      - P O W E R E D   B Y -                         
                 /     \                                                     
                 |  |  |   _    _      __       _____    __    __             
                 |  |  |  | |  | |    /  \     |  _  \  |  |  /  |          
                  \  \/   | |  | |   /    \    | | | |  |  | /  /          
                 / \  \   | |__| |  /  /\  \   | |_| |  |  |/  /          
                |  |  |   |  __  | /  /__\  \  |    /   |      \           
                |  |  |   | |  | | |   __   |  |    \   |  |\   \          
                \     /   | |  | | |  |  |  |  | |\  \  |  | \   \       
                 \___/    |_|  |_| |__|  |__|  |_| \__\ |__|  \__/        
                                                                              
                      - O R C A' S   B I G   F R I E N D -                    
                                      &                                       
                       - I N T E G R A L  F E E D E R -                       
                                                                              
 v1 FN, 2020, v2 2021, v3 2022-2024                                           
------------------------------------------------------------------------------


----------------------
SHARK INTEGRAL PACKAGE
----------------------

Number of atoms                             ...     24
Number of basis functions                   ...    264
Number of shells                            ...    120
Maximum angular momentum                    ...      2
Integral batch strategy                     ... SHARK/LIBINT Hybrid
RI-J (if used) integral strategy            ... SPLIT-RIJ (Revised 2003 algorithm where possible)
Printlevel                                  ...      1
Contraction scheme used                     ... SEGMENTED contraction
Prescreening option                         ... SCHWARTZ
   Thresh                                   ... 1.000e-10
   Tcut                                     ... 1.000e-11
   Tpresel                                  ... 1.000e-11 
Coulomb Range Separation                    ... NOT USED
Exchange Range Separation                   ... NOT USED
Multipole approximations                    ... NOT USED
Finite Nucleus Model                        ... NOT USED
CABS basis                                  ... NOT available
Auxiliary Coulomb fitting basis             ... AVAILABLE
   # of basis functions in Aux-J            ...    872
   # of shells in Aux-J                     ...    280
   Maximum angular momentum in Aux-J        ...      4
Auxiliary J/K fitting basis                 ... NOT available
Auxiliary Correlation fitting basis         ... NOT available
Auxiliary 'external' fitting basis          ... NOT available

Checking pre-screening integrals            ... done (  0.0 sec) Dimension = 120
Check shell pair data                       ... done (  0.0 sec)
Shell pair information
Shell pair cut-off parameter TPreSel        ...   1.0e-11
Total number of shell pairs                 ...      7260
Shell pairs after pre-screening             ...      6253
Total number of primitive shell pairs       ...     27260
Primitive shell pairs kept                  ...     15608
          la=0 lb=0:   1781 shell pairs
          la=1 lb=0:   2254 shell pairs
          la=1 lb=1:    741 shell pairs
          la=2 lb=0:    831 shell pairs
          la=2 lb=1:    542 shell pairs
          la=2 lb=2:    104 shell pairs

Reading point charge file                   ... ok (2 point charges)
Calculating one electron integrals          ... done (  0.0 sec)
Calculating RI/J V-Matrix + Cholesky decomp.... done (  0.3 sec)
Calculating Nuclear repulsion               ... (+Point charges) done (  0.0 sec) ENN=   1138.995967206855 Eh

Diagonalization of the overlap matrix:
Smallest eigenvalue                        ... 3.801e-04
Time for diagonalization                   ...    0.018 sec
Threshold for overlap eigenvalues          ... 1.000e-07
Number of eigenvalues below threshold      ... 0
Time for construction of square roots      ...    0.022 sec
Total time needed                          ...    0.057 sec

-------------------
DFT GRID GENERATION
-------------------

General Integration Accuracy     IntAcc      ... 4.388
Radial Grid Type                 RadialGrid  ... OptM3 with GC (2021)
Angular Grid (max. ang.)         AngularGrid ... 4 (Lebedev-302)
Angular grid pruning method      GridPruning ... 4 (adaptive)
Weight generation scheme         WeightScheme... mBecke (2022)
Basis function cutoff            BFCut       ... 1.0000e-10
Integration weight cutoff        WCut        ... 1.0000e-14
Partially contracted basis set               ... off
Rotationally invariant grid construction     ... off
Angular grids for H and He will be reduced by one unit

Total number of grid points                  ...   121579
Total number of batches                      ...     1911
Average number of points per batch           ...       63
Average number of grid points per atom       ...     5066

--------------------
COSX GRID GENERATION
--------------------

GRIDX 1
-------
General Integration Accuracy     IntAcc      ... 3.816
Radial Grid Type                 RadialGrid  ... OptM3 with GC (2021)
Angular Grid (max. ang.)         AngularGrid ... 1 (Lebedev-50)
Angular grid pruning method      GridPruning ... 4 (adaptive)
Weight generation scheme         WeightScheme... mBecke (2022)
Basis function cutoff            BFCut       ... 1.0000e-10
Integration weight cutoff        WCut        ... 1.0000e-14
Partially contracted basis set               ... on
Rotationally invariant grid construction     ... off
Angular grids for H and He will be reduced by one unit

Total number of grid points                  ...    15390
Total number of batches                      ...      133
Average number of points per batch           ...      115
Average number of grid points per atom       ...      641
UseSFitting                                  ... on

GRIDX 2
-------
General Integration Accuracy     IntAcc      ... 4.020
Radial Grid Type                 RadialGrid  ... OptM3 with GC (2021)
Angular Grid (max. ang.)         AngularGrid ... 2 (Lebedev-110)
Angular grid pruning method      GridPruning ... 4 (adaptive)
Weight generation scheme         WeightScheme... mBecke (2022)
Basis function cutoff            BFCut       ... 1.0000e-10
Integration weight cutoff        WCut        ... 1.0000e-14
Partially contracted basis set               ... on
Rotationally invariant grid construction     ... off
Angular grids for H and He will be reduced by one unit

Total number of grid points                  ...    34385
Total number of batches                      ...      281
Average number of points per batch           ...      122
Average number of grid points per atom       ...     1433
UseSFitting                                  ... on

GRIDX 3
-------
General Integration Accuracy     IntAcc      ... 4.338
Radial Grid Type                 RadialGrid  ... OptM3 with GC (2021)
Angular Grid (max. ang.)         AngularGrid ... 3 (Lebedev-194)
Angular grid pruning method      GridPruning ... 4 (adaptive)
Weight generation scheme         WeightScheme... mBecke (2022)
Basis function cutoff            BFCut       ... 1.0000e-10
Integration weight cutoff        WCut        ... 1.0000e-14
Partially contracted basis set               ... on
Rotationally invariant grid construction     ... off
Angular grids for H and He will be reduced by one unit

Total number of grid points                  ...    75483
Total number of batches                      ...      601
Average number of points per batch           ...      125
Average number of grid points per atom       ...     3145
UseSFitting                                  ... on
Initializing property integral containers    ... done (  0.0 sec)

SHARK setup successfully completed in   4.8 seconds

Maximum memory used throughout the entire STARTUP-calculation: 33.8 MB


           ************************************************************
           *        Program running with 8 parallel MPI-processes     *
           *              working on a common directory               *
           ************************************************************
-------------------------------------------------------------------------------
                                 ORCA GUESS
                   Start orbitals & Density for SCF / CASSCF
-------------------------------------------------------------------------------

------------
SCF SETTINGS
------------
Hamiltonian:
 Density Functional     Method          .... DFT(GTOs)
 Exchange Functional    Exchange        .... B88
   X-Alpha parameter    XAlpha          ....  0.666667
   Becke's b parameter  XBeta           ....  0.004200
 Correlation Functional Correlation     .... LYP
 LDA part of GGA corr.  LDAOpt          .... VWN-5
 Gradients option       PostSCFGGA      .... off
 Hybrid DFT is turned on
   Fraction HF Exchange ScalHFX         ....  0.200000
   Scaling of DF-GGA-X  ScalDFX         ....  0.720000
   Scaling of DF-GGA-C  ScalDFC         ....  0.810000
   Scaling of DF-LDA-C  ScalLDAC        ....  1.000000
   Perturbative correction              ....  0.000000
   NL short-range parameter             ....  4.800000
 RI-approximation to the Coulomb term is turned on
   Number of AuxJ basis functions       .... 872
   RIJ-COSX (HFX calculated with COS-X)).... on


General Settings:
 Integral files         IntName         .... polf_TS_pc
 Hartree-Fock type      HFTyp           .... RHF
 Total Charge           Charge          ....   -2
 Multiplicity           Mult            ....    1
 Number of Electrons    NEL             ....  118
 Basis Dimension        Dim             ....  264
 Nuclear Repulsion      ENuc            ....   1138.9959672069 Eh

Convergence Acceleration:
 AO-DIIS                CNVDIIS         .... on
   Start iteration      DIISMaxIt       ....    12
   Startup error        DIISStart       ....  0.200000
   # of expansion vecs  DIISMaxEq       ....     5
   Bias factor          DIISBfac        ....   1.050
   Max. coefficient     DIISMaxC        ....  10.000
 MO-DIIS                CNVKDIIS        .... off
 Trust-Rad. Augm. Hess. CNVTRAH         .... auto
   Auto Start mean grad. ratio tolernc. ....  1.125000
   Auto Start start iteration           ....     1
   Auto Start num. interpolation iter.  ....    10
   Max. Number of Micro iterations      ....    24
   Max. Number of Macro iterations      .... Maxiter - #DIIS iter
   Number of Davidson start vectors     ....     2
   Converg. threshold    (grad. norm)   ....   5.000e-05
   Grad. Scal. Fac. for Micro threshold ....   0.100
   Minimum threshold for Micro iter.    ....   1.000e-02
   NR start threshold (gradient norm)   ....   1.000e-04
   Initial trust radius                 ....   0.400
   Minimum AH scaling param. (alpha)    ....   1.000
   Maximum AH scaling param. (alpha)    .... 1000.000
   Quad. conv. algorithm                .... NR
   White noise on init. David. guess    .... on
   Maximum white noise                  ....   0.010
   Pseudo random numbers                .... off
   Inactive MOs                         .... canonical
   Orbital update algorithm             .... Taylor
   Preconditioner                       .... Diag
   Full preconditioner red. dimension   ....   250
 SOSCF                  CNVSOSCF        .... on
   Start iteration      SOSCFMaxIt      ....   150
   Startup grad/error   SOSCFStart      ....  0.003300
   Hessian update       SOSCFHessUp     .... L-BFGS
 Level Shifting         CNVShift        .... on
   Level shift para.    LevelShift      ....    0.2500
   Turn off err/grad.   ShiftErr        ....    0.0010
 Zerner damping         CNVZerner       .... off
 Static damping         CNVDamp         .... on
   Fraction old density DampFac         ....    0.7000
   Max. Damping (<1)    DampMax         ....    0.9800
   Min. Damping (>=0)   DampMin         ....    0.0000
   Turn off err/grad.   DampErr         ....    0.1000

SCF Procedure:
 Maximum # iterations   MaxIter         ....   300
 SCF integral mode      SCFMode         .... Direct
   Integral package                     .... SHARK and LIBINT hybrid scheme
 Reset frequency        DirectResetFreq ....    20
 Integral Threshold     Thresh          ....  1.000e-10 Eh
 Primitive CutOff       TCut            ....  1.000e-11 Eh

Convergence Tolerance:
 Convergence Check Mode ConvCheckMode   .... Total+1el-Energy
 Convergence forced     ConvForced      .... 0
 Energy Change          TolE            ....  1.000e-06 Eh
 1-El. energy change                    ....  1.000e-03 Eh
 Orbital Gradient       TolG            ....  5.000e-05
 Orbital Rotation angle TolX            ....  5.000e-05
 DIIS Error             TolErr          ....  1.000e-06

---------------------
INITIAL GUESS: MOREAD
---------------------
Guess MOs are being read from file: polf_TS_pc.ges
Input Geometry matches current geometry (good)
Input basis set matches current basis set (good)
Occupation numbers will be reassigned to an Aufbau configuration
MOs were renormalized
MOs were reorthogonalized (Cholesky)
                      ------------------
                      INITIAL GUESS DONE (   0.1 sec)
                      ------------------
             **** ENERGY FILE WAS UPDATED (polf_TS_pc.en.tmp) ****
Finished Guess after   0.9 sec
Maximum memory used throughout the entire GUESS-calculation: 14.9 MB


           ************************************************************
           *        Program running with 8 parallel MPI-processes     *
           *              working on a common directory               *
           ************************************************************

-------------------------------------------------------------------------------------------
                                      ORCA LEAN-SCF
                              memory conserving SCF solver
-------------------------------------------------------------------------------------------

--------------------
CPCM SOLVATION MODEL
--------------------
CPCM parameters:
  Epsilon                                         ...       4.0000
  Refrac                                          ...       1.3300
  Rsolv                                           ...       1.3000
  Surface type                                    ... GAUSSIAN VDW
  Discretization scheme                           ... Constant charge density
    Threshold for H atoms                         ...       5.0000 (charges/Ang^2)
    Threshold for non-H atoms                     ...       5.0000 (charges/Ang^2)
  Epsilon function type                           ...         CPCM
Solvent:                                          ... CUSTOM
Radii:
  Scheme                                          ... Element-dependent radii
  Radius for C  used is    3.8550 Bohr (=   2.0400 Ang.)
  Radius for H  used is    2.4944 Bohr (=   1.3200 Ang.)
  Radius for O  used is    3.4469 Bohr (=   1.8240 Ang.)
Calculating surface                               ...        done! (  0.0s)
Cavity surface points                             ...         2059
Cavity Volume                                     ...    1640.4641
Cavity Surface-area                               ...     846.4113
Calculating surface distance matrix               ...        done! (  0.1s)
Performing Cholesky decomposition & store         ...        done! (  0.6s)
Overall time for CPCM initialization              ...                 0.7s

----------------------------------------D-I-I-S--------------------------------------------
Iteration    Energy (Eh)           Delta-E    RMSDP     MaxDP     DIISErr   Damp  Time(sec)
-------------------------------------------------------------------------------------------
               ***  Starting incremental Fock matrix formation  ***
                              *** Initializing SOSCF ***
---------------------------------------S-O-S-C-F--------------------------------------
Iteration    Energy (Eh)           Delta-E    RMSDP     MaxDP     MaxGrad    Time(sec)
--------------------------------------------------------------------------------------
    1    -836.6559060810175197     0.00e+00  6.98e-06  2.74e-04  1.27e-05     4.7
               *** Restarting incremental Fock matrix formation ***
    2    -836.6559061352133995    -5.42e-08  7.45e-06  2.47e-04  3.75e-05     4.5
    3    -836.6559059772678211     1.58e-07  4.90e-06  1.60e-04  6.49e-05     2.8
                 **** Energy Check signals convergence ****

               *****************************************************
               *                     SUCCESS                       *
               *           SCF CONVERGED AFTER   3 CYCLES          *
               *****************************************************

Recomputing exchange energy using gridx3       ... done (    5.808 sec)
Old exchange energy                            :    -20.871307647 Eh
New exchange energy                            :    -20.871310669 Eh
Exchange energy change after final integration :     -0.000003022 Eh
Total energy after final integration           :   -836.655908999 Eh
             **** ENERGY FILE WAS UPDATED (polf_TS_pc.en.tmp) ****

----------------
TOTAL SCF ENERGY
----------------

Total Energy       :       -836.65590899910706 Eh          -22766.56471 eV

Components:
Nuclear Repulsion  :       1138.99596720685531 Eh           30993.65595 eV
Electronic Energy  :      -1975.42159128503863 Eh          -53753.95430 eV
One Electron Energy:      -3423.33816736280505 Eh          -93153.76738 eV
Two Electron Energy:       1447.91657607776642 Eh           39399.81308 eV
CPCM Dielectric    :         -0.23028189908453 Eh              -6.26629 eV

Virial components:
Potential Energy   :      -1666.02997092587839 Eh          -45334.98029 eV
Kinetic Energy     :        829.37406192677145 Eh           22568.41558 eV
Virial Ratio       :          2.00877993104272

DFT components:
N(Alpha)           :       59.000017424863 electrons
N(Beta)            :       59.000017424863 electrons
N(Total)           :      118.000034849725 electrons
E(X)               :      -83.100889271914 Eh       
E(C)               :       -4.843814309572 Eh       
E(XC)              :      -87.944703581486 Eh       

CPCM Solvation Model Properties:
Surface-charge          :          1.98262501530977
Corrected charge        :          2.00000000000000
Outlying charge corr.   :          0.00001452315283 Eh               0.00040 eV
Free-energy (cav+disp)  :  This term is not implemented in the current solvation scheme

---------------
SCF CONVERGENCE
---------------

  Last Energy change         ...   -1.5795e-07  Tolerance :   1.0000e-06
  Last MAX-Density change    ...    1.5974e-04  Tolerance :   1.0000e-05
  Last RMS-Density change    ...    4.8954e-06  Tolerance :   1.0000e-06
  Last DIIS Error            ...    1.1634e-04  Tolerance :   1.0000e-06
  Last Orbital Gradient      ...    6.4854e-05  Tolerance :   5.0000e-05
  Last Orbital Rotation      ...    6.0897e-05  Tolerance :   5.0000e-05


----------------
ORBITAL ENERGIES
----------------

  NO   OCC          E(Eh)            E(eV) 
   0   2.0000     -19.248784      -523.7860 
   1   2.0000     -19.239807      -523.5418 
   2   2.0000     -19.153436      -521.1915 
   3   2.0000     -19.148023      -521.0442 
   4   2.0000     -19.133459      -520.6479 
   5   2.0000     -19.131574      -520.5966 
   6   2.0000     -10.355520      -281.7880 
   7   2.0000     -10.348077      -281.5855 
   8   2.0000     -10.345599      -281.5181 
   9   2.0000     -10.340755      -281.3862 
  10   2.0000     -10.336502      -281.2705 
  11   2.0000     -10.322517      -280.8900 
  12   2.0000     -10.301798      -280.3262 
  13   2.0000     -10.293624      -280.1038 
  14   2.0000     -10.288149      -279.9548 
  15   2.0000     -10.284014      -279.8423 
  16   2.0000      -1.125056       -30.6143 
  17   2.0000      -1.121277       -30.5115 
  18   2.0000      -1.082413       -29.4540 
  19   2.0000      -1.072842       -29.1935 
  20   2.0000      -0.996509       -27.1164 
  21   2.0000      -0.978473       -26.6256 
  22   2.0000      -0.949047       -25.8249 
  23   2.0000      -0.856034       -23.2939 
  24   2.0000      -0.849561       -23.1177 
  25   2.0000      -0.821483       -22.3537 
  26   2.0000      -0.732893       -19.9430 
  27   2.0000      -0.709745       -19.3131 
  28   2.0000      -0.689186       -18.7537 
  29   2.0000      -0.642558       -17.4849 
  30   2.0000      -0.640124       -17.4187 
  31   2.0000      -0.595408       -16.2019 
  32   2.0000      -0.593497       -16.1499 
  33   2.0000      -0.574346       -15.6287 
  34   2.0000      -0.559679       -15.2296 
  35   2.0000      -0.543303       -14.7840 
  36   2.0000      -0.538881       -14.6637 
  37   2.0000      -0.533495       -14.5171 
  38   2.0000      -0.527509       -14.3543 
  39   2.0000      -0.511212       -13.9108 
  40   2.0000      -0.496241       -13.5034 
  41   2.0000      -0.478576       -13.0227 
  42   2.0000      -0.473808       -12.8930 
  43   2.0000      -0.471216       -12.8224 
  44   2.0000      -0.469542       -12.7769 
  45   2.0000      -0.463609       -12.6155 
  46   2.0000      -0.449762       -12.2386 
  47   2.0000      -0.437194       -11.8967 
  48   2.0000      -0.414533       -11.2800 
  49   2.0000      -0.404298       -11.0015 
  50   2.0000      -0.396795       -10.7973 
  51   2.0000      -0.359593        -9.7850 
  52   2.0000      -0.337320        -9.1790 
  53   2.0000      -0.323913        -8.8141 
  54   2.0000      -0.319815        -8.7026 
  55   2.0000      -0.313197        -8.5225 
  56   2.0000      -0.306995        -8.3538 
  57   2.0000      -0.305918        -8.3245 
  58   2.0000      -0.289749        -7.8845 
  59   0.0000      -0.200643        -5.4598 
  60   0.0000      -0.118454        -3.2233 
  61   0.0000      -0.100981        -2.7478 
  62   0.0000      -0.090066        -2.4508 
  63   0.0000      -0.066237        -1.8024 
  64   0.0000      -0.031983        -0.8703 
  65   0.0000      -0.011594        -0.3155 
  66   0.0000       0.009863         0.2684 
  67   0.0000       0.026165         0.7120 
  68   0.0000       0.032761         0.8915 
  69   0.0000       0.039492         1.0746 
*Only the first 10 virtual orbitals were printed.

                    ********************************
                    * MULLIKEN POPULATION ANALYSIS *
                    ********************************

-----------------------
MULLIKEN ATOMIC CHARGES
-----------------------
   0 C :    0.036548
   1 H :    0.047615
   2 H :   -0.062324
   3 C :   -0.083215
   4 C :    0.065774
   5 O :   -0.375575
   6 O :   -0.439174
   7 O :   -0.512913
   8 C :    0.040732
   9 H :   -0.126739
  10 C :    0.030938
  11 H :   -0.072859
  12 C :   -0.085096
  13 C :    0.052269
  14 H :    0.017465
  15 C :   -0.039768
  16 H :    0.029869
  17 C :    0.328573
  18 H :   -0.046886
  19 O :   -0.319232
  20 H :    0.182164
  21 C :    0.117171
  22 O :   -0.362538
  23 O :   -0.422798
Sum of atomic charges:   -2.0000000

--------------------------------
MULLIKEN REDUCED ORBITAL CHARGES
--------------------------------
  0 C s       :     3.114936  s :     3.114936
      pz      :     0.860950  p :     2.825121
      px      :     0.985550
      py      :     0.978621
      dz2     :     0.005449  d :     0.023395
      dxz     :     0.002872
      dyz     :     0.007364
      dx2y2   :     0.004171
      dxy     :     0.003540

  1 H s       :     0.927862  s :     0.927862
      pz      :     0.009580  p :     0.024523
      px      :     0.004453
      py      :     0.010490

  2 H s       :     1.038256  s :     1.038256
      pz      :     0.013911  p :     0.024068
      px      :     0.005689
      py      :     0.004469

  3 C s       :     3.183523  s :     3.183523
      pz      :     0.999300  p :     2.819152
      px      :     0.909620
      py      :     0.910232
      dz2     :     0.020704  d :     0.080540
      dxz     :     0.007259
      dyz     :     0.022904
      dx2y2   :     0.014014
      dxy     :     0.015659

  4 C s       :     3.049101  s :     3.049101
      pz      :     0.956084  p :     2.747121
      px      :     0.872898
      py      :     0.918140
      dz2     :     0.032701  d :     0.138004
      dxz     :     0.018290
      dyz     :     0.030827
      dx2y2   :     0.030584
      dxy     :     0.025602

  5 O s       :     3.723216  s :     3.723216
      pz      :     1.630942  p :     4.637788
      px      :     1.550226
      py      :     1.456620
      dz2     :     0.002169  d :     0.014571
      dxz     :     0.002288
      dyz     :     0.004566
      dx2y2   :     0.002875
      dxy     :     0.002674

  6 O s       :     3.731365  s :     3.731365
      pz      :     1.749332  p :     4.694322
      px      :     1.466531
      py      :     1.478458
      dz2     :     0.001707  d :     0.013488
      dxz     :     0.001620
      dyz     :     0.002600
      dx2y2   :     0.003457
      dxy     :     0.004104

  7 O s       :     3.725051  s :     3.725051
      pz      :     1.676127  p :     4.775271
      px      :     1.548982
      py      :     1.550162
      dz2     :     0.001677  d :     0.012591
      dxz     :     0.001516
      dyz     :     0.003985
      dx2y2   :     0.003035
      dxy     :     0.002378

  8 C s       :     3.127645  s :     3.127645
      pz      :     0.975710  p :     2.795764
      px      :     0.928588
      py      :     0.891466
      dz2     :     0.004709  d :     0.035859
      dxz     :     0.006206
      dyz     :     0.011126
      dx2y2   :     0.007707
      dxy     :     0.006110

  9 H s       :     1.105113  s :     1.105113
      pz      :     0.006799  p :     0.021626
      px      :     0.004500
      py      :     0.010326

 10 C s       :     3.188867  s :     3.188867
      pz      :     0.839746  p :     2.746248
      px      :     0.957806
      py      :     0.948697
      dz2     :     0.006402  d :     0.033947
      dxz     :     0.004537
      dyz     :     0.010252
      dx2y2   :     0.007256
      dxy     :     0.005500

 11 H s       :     1.049243  s :     1.049243
      pz      :     0.012062  p :     0.023615
      px      :     0.007406
      py      :     0.004147

 12 C s       :     3.243705  s :     3.243705
      pz      :     0.927728  p :     2.800233
      px      :     0.845440
      py      :     1.027065
      dz2     :     0.008109  d :     0.041157
      dxz     :     0.006614
      dyz     :     0.010963
      dx2y2   :     0.008325
      dxy     :     0.007146

 13 C s       :     3.211643  s :     3.211643
      pz      :     0.947664  p :     2.702463
      px      :     0.923391
      py      :     0.831408
      dz2     :     0.005582  d :     0.033626
      dxz     :     0.005243
      dyz     :     0.008791
      dx2y2   :     0.007469
      dxy     :     0.006542

 14 H s       :     0.958900  s :     0.958900
      pz      :     0.005926  p :     0.023635
      px      :     0.004136
      py      :     0.013573

 15 C s       :     3.220431  s :     3.220431
      pz      :     0.887184  p :     2.785900
      px      :     0.954347
      py      :     0.944369
      dz2     :     0.004790  d :     0.033438
      dxz     :     0.004285
      dyz     :     0.008992
      dx2y2   :     0.008525
      dxy     :     0.006846

 16 H s       :     0.947233  s :     0.947233
      pz      :     0.010792  p :     0.022898
      px      :     0.008978
      py      :     0.003128

 17 C s       :     2.813514  s :     2.813514
      pz      :     0.957794  p :     2.787696
      px      :     0.779512
      py      :     1.050391
      dz2     :     0.009429  d :     0.070216
      dxz     :     0.018739
      dyz     :     0.011416
      dx2y2   :     0.015074
      dxy     :     0.015558

 18 H s       :     1.023240  s :     1.023240
      pz      :     0.011052  p :     0.023647
      px      :     0.006796
      py      :     0.005799

 19 O s       :     3.742232  s :     3.742232
      pz      :     1.830330  p :     4.564858
      px      :     1.504506
      py      :     1.230022
      dz2     :     0.001746  d :     0.012141
      dxz     :     0.002411
      dyz     :     0.001056
      dx2y2   :     0.004981
      dxy     :     0.001948

 20 H s       :     0.751304  s :     0.751304
      pz      :     0.018111  p :     0.066532
      px      :     0.013742
      py      :     0.034679

 21 C s       :     3.004128  s :     3.004128
      pz      :     0.913190  p :     2.739083
      px      :     0.894761
      py      :     0.931132
      dz2     :     0.033462  d :     0.139618
      dxz     :     0.020882
      dyz     :     0.035382
      dx2y2   :     0.026106
      dxy     :     0.023786

 22 O s       :     3.732759  s :     3.732759
      pz      :     1.582991  p :     4.615271
      px      :     1.546721
      py      :     1.485559
      dz2     :     0.002018  d :     0.014508
      dxz     :     0.001110
      dyz     :     0.004526
      dx2y2   :     0.003207
      dxy     :     0.003647

 23 O s       :     3.730316  s :     3.730316
      pz      :     1.427283  p :     4.678433
      px      :     1.468814
      py      :     1.782336
      dz2     :     0.004403  d :     0.014049
      dxz     :     0.005064
      dyz     :     0.001861
      dx2y2   :     0.001689
      dxy     :     0.001033



                     *******************************
                     * LOEWDIN POPULATION ANALYSIS *
                     *******************************

----------------------
LOEWDIN ATOMIC CHARGES
----------------------
   0 C :   -0.070207
   1 H :    0.036061
   2 H :   -0.010544
   3 C :   -0.074092
   4 C :   -0.071117
   5 O :   -0.349553
   6 O :   -0.404162
   7 O :   -0.386813
   8 C :    0.036522
   9 H :   -0.028454
  10 C :   -0.057643
  11 H :    0.001334
  12 C :    0.043086
  13 C :   -0.012412
  14 H :    0.043334
  15 C :    0.015159
  16 H :    0.043582
  17 C :    0.050131
  18 H :    0.004097
  19 O :   -0.140380
  20 H :    0.089375
  21 C :   -0.035495
  22 O :   -0.335103
  23 O :   -0.386707

-------------------------------
LOEWDIN REDUCED ORBITAL CHARGES
-------------------------------
  0 C s       :     2.911120  s :     2.911120
      pz      :     1.036338  p :     3.095375
      px      :     0.983992
      py      :     1.075045
      dz2     :     0.015444  d :     0.063711
      dxz     :     0.007353
      dyz     :     0.021533
      dx2y2   :     0.011298
      dxy     :     0.008083

  1 H s       :     0.888892  s :     0.888892
      pz      :     0.027793  p :     0.075048
      px      :     0.015691
      py      :     0.031563

  2 H s       :     0.937179  s :     0.937179
      pz      :     0.041486  p :     0.073364
      px      :     0.018730
      py      :     0.013148

  3 C s       :     2.904847  s :     2.904847
      pz      :     1.044406  p :     2.970701
      px      :     0.911219
      py      :     1.015076
      dz2     :     0.053524  d :     0.198545
      dxz     :     0.015576
      dyz     :     0.057936
      dx2y2   :     0.034750
      dxy     :     0.036760

  4 C s       :     2.870770  s :     2.870770
      pz      :     1.007491  p :     2.879406
      px      :     0.900773
      py      :     0.971142
      dz2     :     0.080684  d :     0.320942
      dxz     :     0.041109
      dyz     :     0.071992
      dx2y2   :     0.064040
      dxy     :     0.063117

  5 O s       :     3.571809  s :     3.571809
      pz      :     1.664586  p :     4.751917
      px      :     1.560017
      py      :     1.527314
      dz2     :     0.003302  d :     0.025827
      dxz     :     0.003582
      dyz     :     0.009489
      dx2y2   :     0.004610
      dxy     :     0.004845

  6 O s       :     3.569279  s :     3.569279
      pz      :     1.755575  p :     4.810392
      px      :     1.512818
      py      :     1.542000
      dz2     :     0.003035  d :     0.024491
      dxz     :     0.002958
      dyz     :     0.004870
      dx2y2   :     0.004941
      dxy     :     0.008686

  7 O s       :     3.553938  s :     3.553938
      pz      :     1.682370  p :     4.809491
      px      :     1.539021
      py      :     1.588101
      dz2     :     0.003190  d :     0.023383
      dxz     :     0.002698
      dyz     :     0.008138
      dx2y2   :     0.005485
      dxy     :     0.003872

  8 C s       :     2.909785  s :     2.909785
      pz      :     0.988577  p :     2.964286
      px      :     0.920888
      py      :     1.054821
      dz2     :     0.011080  d :     0.089407
      dxz     :     0.014979
      dyz     :     0.028885
      dx2y2   :     0.020259
      dxy     :     0.014204

  9 H s       :     0.961129  s :     0.961129
      pz      :     0.022093  p :     0.067325
      px      :     0.014854
      py      :     0.030377

 10 C s       :     2.861534  s :     2.861534
      pz      :     1.035272  p :     3.103614
      px      :     1.008929
      py      :     1.059413
      dz2     :     0.017134  d :     0.092495
      dxz     :     0.010908
      dyz     :     0.029148
      dx2y2   :     0.021821
      dxy     :     0.013484

 11 H s       :     0.926573  s :     0.926573
      pz      :     0.034988  p :     0.072093
      px      :     0.023722
      py      :     0.013382

 12 C s       :     2.920381  s :     2.920381
      pz      :     0.995946  p :     2.934567
      px      :     0.855234
      py      :     1.083387
      dz2     :     0.018849  d :     0.101967
      dxz     :     0.016434
      dyz     :     0.029554
      dx2y2   :     0.021618
      dxy     :     0.015511

 13 C s       :     2.866920  s :     2.866920
      pz      :     1.001197  p :     3.056150
      px      :     0.983020
      py      :     1.071933
      dz2     :     0.014702  d :     0.089343
      dxz     :     0.014295
      dyz     :     0.023187
      dx2y2   :     0.020171
      dxy     :     0.016988

 14 H s       :     0.884404  s :     0.884404
      pz      :     0.019077  p :     0.072262
      px      :     0.013294
      py      :     0.039891

 15 C s       :     2.883043  s :     2.883043
      pz      :     0.988713  p :     3.016382
      px      :     0.979624
      py      :     1.048046
      dz2     :     0.011591  d :     0.085416
      dxz     :     0.010598
      dyz     :     0.023131
      dx2y2   :     0.022582
      dxy     :     0.017514

 16 H s       :     0.887165  s :     0.887165
      pz      :     0.032291  p :     0.069254
      px      :     0.026303
      py      :     0.010660

 17 C s       :     2.834273  s :     2.834273
      pz      :     1.024814  p :     2.954382
      px      :     0.899371
      py      :     1.030197
      dz2     :     0.019319  d :     0.161214
      dxz     :     0.047263
      dyz     :     0.027748
      dx2y2   :     0.034219
      dxy     :     0.032664

 18 H s       :     0.920458  s :     0.920458
      pz      :     0.033444  p :     0.075445
      px      :     0.021941
      py      :     0.020060

 19 O s       :     3.457860  s :     3.457860
      pz      :     1.809747  p :     4.659576
      px      :     1.534018
      py      :     1.315811
      dz2     :     0.003190  d :     0.022944
      dxz     :     0.003513
      dyz     :     0.001669
      dx2y2   :     0.010698
      dxy     :     0.003874

 20 H s       :     0.735050  s :     0.735050
      pz      :     0.049163  p :     0.175575
      px      :     0.036751
      py      :     0.089661

 21 C s       :     2.849876  s :     2.849876
      pz      :     0.959034  p :     2.864569
      px      :     0.910721
      py      :     0.994814
      dz2     :     0.072255  d :     0.321050
      dxz     :     0.049535
      dyz     :     0.085302
      dx2y2   :     0.059829
      dxy     :     0.054130

 22 O s       :     3.574820  s :     3.574820
      pz      :     1.617099  p :     4.734678
      px      :     1.558168
      py      :     1.559411
      dz2     :     0.003054  d :     0.025605
      dxz     :     0.002105
      dyz     :     0.008609
      dx2y2   :     0.006046
      dxy     :     0.005791

 23 O s       :     3.569469  s :     3.569469
      pz      :     1.493593  p :     4.792147
      px      :     1.510579
      py      :     1.787974
      dz2     :     0.007001  d :     0.025092
      dxz     :     0.010728
      dyz     :     0.002980
      dx2y2   :     0.002724
      dxy     :     0.001659



                      *****************************
                      * MAYER POPULATION ANALYSIS *
                      *****************************

  NA   - Mulliken gross atomic population
  ZA   - Total nuclear charge
  QA   - Mulliken gross atomic charge
  VA   - Mayer's total valence
  BVA  - Mayer's bonded valence
  FA   - Mayer's free valence

  ATOM       NA         ZA         QA         VA         BVA        FA
  0 C      5.9635     6.0000     0.0365     3.8330     3.8330     0.0000
  1 H      0.9524     1.0000     0.0476     1.0236     1.0236     0.0000
  2 H      1.0623     1.0000    -0.0623     1.0343     1.0343    -0.0000
  3 C      6.0832     6.0000    -0.0832     4.0190     4.0190    -0.0000
  4 C      5.9342     6.0000     0.0658     4.4904     4.4904    -0.0000
  5 O      8.3756     8.0000    -0.3756     2.1190     2.1190    -0.0000
  6 O      8.4392     8.0000    -0.4392     2.0432     2.0432    -0.0000
  7 O      8.5129     8.0000    -0.5129     1.9600     1.9600    -0.0000
  8 C      5.9593     6.0000     0.0407     3.8468     3.8468     0.0000
  9 H      1.1267     1.0000    -0.1267     0.9806     0.9806     0.0000
 10 C      5.9691     6.0000     0.0309     3.8809     3.8809    -0.0000
 11 H      1.0729     1.0000    -0.0729     1.0412     1.0412    -0.0000
 12 C      6.0851     6.0000    -0.0851     3.6338     3.6338     0.0000
 13 C      5.9477     6.0000     0.0523     3.8582     3.8582    -0.0000
 14 H      0.9825     1.0000     0.0175     1.0300     1.0300    -0.0000
 15 C      6.0398     6.0000    -0.0398     3.9222     3.9222    -0.0000
 16 H      0.9701     1.0000     0.0299     0.9955     0.9955    -0.0000
 17 C      5.6714     6.0000     0.3286     3.8325     3.8325    -0.0000
 18 H      1.0469     1.0000    -0.0469     1.0911     1.0911     0.0000
 19 O      8.3192     8.0000    -0.3192     2.0602     2.0602    -0.0000
 20 H      0.8178     1.0000     0.1822     1.0044     1.0044     0.0000
 21 C      5.8828     6.0000     0.1172     4.5209     4.5209     0.0000
 22 O      8.3625     8.0000    -0.3625     2.1416     2.1416     0.0000
 23 O      8.4228     8.0000    -0.4228     2.0660     2.0660     0.0000

  Mayer bond orders larger than 0.100000
B(  0-C ,  1-H ) :   0.9307 B(  0-C ,  2-H ) :   0.9162 B(  0-C ,  3-C ) :   1.5324 
B(  0-C , 12-C ) :   0.2553 B(  3-C ,  4-C ) :   0.8207 B(  3-C ,  7-O ) :   1.5037 
B(  4-C ,  5-O ) :   1.8994 B(  4-C ,  6-O ) :   1.7604 B(  5-O ,  6-O ) :   0.1258 
B(  6-O , 18-H ) :   0.1186 B(  7-O ,  8-C ) :   0.2514 B(  8-C ,  9-H ) :   0.9158 
B(  8-C , 10-C ) :   1.4688 B(  8-C , 17-C ) :   0.9616 B( 10-C , 11-H ) :   0.9560 
B( 10-C , 12-C ) :   1.3355 B( 12-C , 13-C ) :   1.0861 B( 12-C , 21-C ) :   0.8073 
B( 13-C , 14-H ) :   0.9844 B( 13-C , 15-C ) :   1.7250 B( 15-C , 16-H ) :   0.9704 
B( 15-C , 17-C ) :   0.9903 B( 17-C , 18-H ) :   0.8337 B( 17-C , 19-O ) :   1.0405 
B( 19-O , 20-H ) :   0.9640 B( 21-C , 22-O ) :   1.9114 B( 21-C , 23-O ) :   1.8071 
B( 22-O , 23-O ) :   0.1293 

-------
TIMINGS
-------

Total SCF time: 0 days 0 hours 0 min 19 sec 

Total time                  ....      19.930 sec
Sum of individual times     ....      19.653 sec  ( 98.6%)

SCF preparation             ....       1.693 sec  (  8.5%)
Fock matrix formation       ....      17.224 sec  ( 86.4%)
  Startup                   ....       0.092 sec  (  0.5% of F)
  Split-RI-J                ....       0.975 sec  (  5.7% of F)
  Chain of spheres X        ....      12.836 sec  ( 74.5% of F)
  XC integration            ....       1.863 sec  ( 10.8% of F)
    Basis function eval.    ....       0.507 sec  ( 27.2% of XC)
    Density eval.           ....       0.323 sec  ( 17.4% of XC)
    XC-Functional eval.     ....       0.083 sec  (  4.5% of XC)
    XC-Potential eval.      ....       0.389 sec  ( 20.9% of XC)
  CPCM terms                ....       1.184 sec  (  6.9% of F)
Diagonalization             ....       0.000 sec  (  0.0%)
Density matrix formation    ....       0.115 sec  (  0.6%)
Total Energy calculation    ....       0.092 sec  (  0.5%)
Population analysis         ....       0.120 sec  (  0.6%)
Orbital Transformation      ....       0.083 sec  (  0.4%)
Orbital Orthonormalization  ....       0.000 sec  (  0.0%)
DIIS solution               ....       0.106 sec  (  0.5%)
SOSCF solution              ....       0.220 sec  (  1.1%)
Finished LeanSCF after  20.2 sec

Maximum memory used throughout the entire LEANSCF-calculation: 31.1 MB


-------------------------------------------------------------------------------
                          DFT DISPERSION CORRECTION                            
                                                                               
                              DFTD3 V3.1  Rev 1                                
                          USING Becke-Johnson damping                          
-------------------------------------------------------------------------------
The B3LYP functional is recognized
Active option DFTDOPT                   ...         4   

molecular C6(AA) [au] = 7107.114447 


            DFT-D V3
 parameters
 s6 scaling factor         :     1.0000 
 a1 scaling factor         :     0.3981 
 s8 scaling factor         :     1.9889 
 a2 scaling factor         :     4.4211 
 ad hoc parameters k1-k3   :    16.0000     1.3333    -4.0000 

 Edisp/kcal,au: -35.335923653620  -0.056311372728 
 E6   /kcal   : -16.493677098 
 E8   /kcal   : -18.842246555 
 % E8         :  53.323203717 

-------------------------   ----------------
Dispersion correction           -0.056311373
-------------------------   ----------------


-------------------------   --------------------
FINAL SINGLE POINT ENERGY      -836.712220371835
-------------------------   --------------------



           ************************************************************
           *        Program running with 8 parallel MPI-processes     *
           *              working on a common directory               *
           ************************************************************

------------------------------------------------------------------------------
                              ORCA PROPERTY CALCULATIONS
------------------------------------------------------------------------------

GBWName                                 ... polf_TS_pc.gbw
Number of atoms                         ...     24
Number of basis functions               ...    264
Max core memory                         ...   3000 MB

Electric properties:
Dipole moment                           ... YES
Quadrupole moment                       ...  NO
Static polarizability (Dipole/Dipole)   ...  NO
Static polarizability (Dipole/Quad.)    ...  NO
Static polarizability (Quad./Quad.)     ...  NO
Static polarizability (Velocity)        ...  NO

Atomic electric properties:
Dipole moment                           ...  NO
Quadrupole moment                       ...  NO
Static polarizability                   ...  NO

Choice of electric origin               ... Center of mass
Position of electric origin             ...    40.889474    76.450785   107.817479

General magnetic properties:
Magnetizability                         ...  NO

EPR properties:
g-Tensor (aka g-matrix)                 ...  NO
Zero-Field splitting spin-orbit         ...  NO
Zero-field splitting spin-spin          ...  NO
Hyperfine couplings                     ...  NO (   0 nuclei)
Quadrupole couplings                    ...  NO (   0 nuclei)
Contact density                         ...  NO (   0 nuclei)

NMR properties:
Chemical shifts                         ...  NO (   0 nuclei)
Spin-rotation constants                 ...  NO (   0 nuclei)
Spin-spin couplings                     ...  NO (   0 nuclei,    0 pairs)

Choice of magnetic origin               ... GIAO
Position of magnetic origin             ...     0.000000     0.000000     0.000000

Properties with geometric perturbations:
SCF Hessian                             ...  NO
IR spectrum                             ...  NO
VCD spectrum                            ...  NO
X-ray spectroscopy properties:
SCF XES/XAS/RIXS spectra                ...  NO


-------------
DIPOLE MOMENT
-------------

Method             : SCF
Type of density    : Electron Density
Multiplicity       :   1
Irrep              :   0
Energy             :  -836.6559089991070550 Eh
Relativity type    : 
Basis              : AO
                                X                 Y                 Z
Electronic contribution:      0.642993480       2.695670690      -0.890356249
Nuclear contribution   :      2.996186626      -4.198849302       1.920793271
                        -----------------------------------------
Total Dipole Moment    :      3.639180106      -1.503178611       1.030437022
                        -----------------------------------------
Magnitude (a.u.)       :      4.070009612
Magnitude (Debye)      :     10.345142292



--------------------
Rotational spectrum 
--------------------
 
Rotational constants in cm-1:             0.022313             0.017053             0.012774 
Rotational constants in MHz :           668.940631           511.239954           382.940473 

Dipole components along the rotational axes: 
x,y,z [a.u.] :    -0.666683     3.879025    -1.036184 
x,y,z [Debye]:    -1.694573     9.859698    -2.633771 

 

Dipole moment calculation done in   0.0 sec 

Maximum memory used throughout the entire PROP-calculation: 13.9 MB

--------------------------------
SUGGESTED CITATIONS FOR THIS RUN
--------------------------------

Below you find a list of papers that are relevant to this ORCA run
We neither can nor want to force you to cite these papers, but we appreciate if you do
You receive ORCA, which is the product of decades of hard work by many enthusiastic individuals, for free
The only thing we kindly ask in return is that you cite our papers,
We deeply appreciate it, if you show your appreciation for ORCA by not just citing the generic ORCA reference.

Please note that relegating all ORCA citations to the supporting information does *not* help us.
SI sections are not indexed - citations you put there will not count into any citation statistics
But we need these citations in order to attract the funding resources that allow us to do what we are doing

Therefore, if you are a happy ORCA user, please consider citing a few of the papers listed below in the main body of your paper

In addition to the list printed below, the program has created the file polf_TS_pc.bibtex that contains the list in bibtex format
You can import this file easily into all common literature databanks and citation aid programs


List of essential papers. We consider these as the minimum necessary citations

  1. Neese,F.
     Software update: the ORCA program system, version 5.0
     WIRES Comput. Molec. Sci., 2022 12(1)e1606
     doi.org/10.1002/wcms.1606

List of papers to cite with high priority. The work reported in these papers was absolutely
necessary for this run to complete.
Our perspective: the developers of density functionals and basis sets usually get cited in chemistry papers
Good! But without the algorithms to do something with them, the functionals or basis sets would not do anything.
Hence, in our opinion, the algorithm design and method developments papers are equally worthy of getting cited

  1. Neese,F.
     An improvement of the resolution of the identity approximation for the formation of the Coulomb matrix
     J. Comp. Chem., 2003 24(14)1740-1747
     doi.org/10.1002/jcc.10318
  2. Neese,F.; Wennmohs,F.; Hansen,A.; Becker,U.
     Efficient, approximate and parallel Hartree-Fock and hybrid DFT calculations. A 'chain-of-spheres' algorithm for the Hartree-Fock exchange
     Chem. Phys., 2009 356(1-3)98-109
     doi.org/10.1016/j.chemphys.2008.10.036
  3. Garcia-Rates,M.; Neese,F.
     Effect of the Solute Cavity on the Solvation Energy and its Derivatives within the Framework of the Gaussian Charge Scheme
     J. Comput. Chem., 2020 41 922-939
     doi.org/10.1002/jcc.26139
  4. Helmich-Paris,B.; de Souza,B.; Neese,F.; Izsák,R.
     An improved chain of spheres for exchange algorithm
     J. Chem. Phys., 2021 155 104109
     doi.org/doi: 10.1063/5.0058766.
  5. Neese,F.
     The SHARK Integral Generation and Digestion System
     J. Comp. Chem., 2022  1-16
     doi.org/10.1002/jcc.26942
  6. Grimme,S.; Antony,J.; Ehrlich,S.; Krieg,H.
     A consistent and accurate ab initio parametrization of density functional dispersion correction (DFT-D) for the 94 elements H-Pu
     J. Chem. Phys., 2010 132 154104
     doi.org/10.1063/1.3382344
  7. Grimme,S.; Ehrlich,S.; Goerigk,L.
     Effect of the damping function in dispersion corrected density functional theory
     J. Comput. Chem., 2011 32(7)1456-1465
     doi.org/10.1002/jcc.21759

List of suggested additional citations. These are papers that are important in the 'surrounding' of 
of this run, or papers that preceded the highly important papers. If you like your results we are grateful for a citation.

  1. Izsak,R.; Neese,F.
     An overlap fitted chain of spheres exchange method
     J. Chem. Phys., 2011 135 144105
     doi.org/10.1063/1.3646921
  2. Izsak,R.; Hansen,A.; Neese,F.
     The resolution of identity and chain of spheres approximations for the LPNO-CCSD singles Fock term
     Molec. Phys., 2012 110 2413-2417
     doi.org/10.1080/00268976.2012.687466
  3. Neese,F.
     The ORCA program system
     WIRES Comput. Molec. Sci., 2012 2(1)73-78
     doi.org/10.1002/wcms.81
  4. Izsak,R.; Neese,F.; Klopper,W.
     Robust fitting techniques in the chain of spheres approximation to the Fock exchange: The role of the complementary space
     J. Chem. Phys., 2013 139 
     doi.org/10.1063/1.4819264
  5. Neese,F.
     Software update: the ORCA program system, version 4.0
     WIRES Comput. Molec. Sci., 2018 8(1)1-6
     doi.org/10.1002/wcms.1327
  6. Neese,F.; Wennmohs,F.; Becker,U.; Riplinger,C.
     The ORCA quantum chemistry program package
     J. Chem. Phys., 2020 152 Art. No. L224108
     doi.org/10.1063/5.0004608

List of optional additional citations

  1. Neese,F.
     Approximate second-order SCF convergence for spin unrestricted wavefunctions
     Chem. Phys. Lett., 2000 325(1-3)93-98
     doi.org/10.1016/s0009-2614(00)00662-x

Timings for individual modules:

Sum of individual times          ...       31.532 sec (=   0.526 min)
Startup calculation              ...        6.347 sec (=   0.106 min)  20.1 %
SCF iterations                   ...       23.401 sec (=   0.390 min)  74.2 %
Property calculations            ...        1.784 sec (=   0.030 min)   5.7 %
                             ****ORCA TERMINATED NORMALLY****
TOTAL RUN TIME: 0 days 0 hours 0 minutes 40 seconds 538 msec
