
                                 *****************
                                 * O   R   C   A *
                                 *****************

                                            #,                                       
                                            ###                                      
                                            ####                                     
                                            #####                                    
                                            ######                                   
                                           ########,                                 
                                     ,,################,,,,,                         
                               ,,#################################,,                 
                          ,,##########################################,,             
                       ,#########################################, ''#####,          
                    ,#############################################,,   '####,        
                  ,##################################################,,,,####,       
                ,###########''''           ''''###############################       
              ,#####''   ,,,,##########,,,,          '''####'''          '####       
            ,##' ,,,,###########################,,,                        '##       
           ' ,,###''''                  '''############,,,                           
         ,,##''                                '''############,,,,        ,,,,,,###''
      ,#''                                            '''#######################'''  
     '                                                          ''''####''''         
             ,#######,   #######,   ,#######,      ##                                
            ,#'     '#,  ##    ##  ,#'     '#,    #''#        ,####,   ,####,        
            ##       ##  ##   ,#'  ##            #'  '#       #'       #'  '#        
            ##       ##  #######   ##           ,######,      #####,   #    #        
            '#,     ,#'  ##    ##  '#,     ,#' ,#      #,     #,   #   #,  ,#        
             '#######'   ##     ##  '#######'  #'      '#     '####' # '####'        



                #########################################################
                #                        -***-                          #
                #          Department of theory and spectroscopy        #
                #                                                       #
                #                      Frank Neese                      #
                #                                                       #
                #     Directorship, Architecture, Infrastructure        #
                #                    SHARK, DRIVERS                     #
                #        Core code/Algorithms in most modules           #
                #                                                       #
                #        Max Planck Institute fuer Kohlenforschung      #
                #                Kaiser Wilhelm Platz 1                 #
                #                 D-45470 Muelheim/Ruhr                 #
                #                      Germany                          #
                #                                                       #
                #                  All rights reserved                  #
                #                        -***-                          #
                #########################################################


                         Program Version 6.0.1  -  RELEASE   -


 With contributions from (in alphabetic order):
[Max-Planck-Institut fuer Kohlenforschung]                               
  Daniel Aravena         : Magnetic Suceptibility                        
  Michael Atanasov       : Ab Initio Ligand Field Theory (pilot matlab implementation)
  Alexander A. Auer      : GIAO ZORA, VPT2 properties, NMR spectrum      
  Ute Becker             : All parallelization in ORCA, NUMFREQ, NUMCALC 
  Giovanni Bistoni       : ED, misc. LED, open-shell LED, HFLD           
  Martin Brehm           : Molecular dynamics                            
  Dmytro Bykov           : pre 5.0 version of the SCF Hessian            
  Marcos Casanova-Páez   : Triplet and SCS-CIS(D). UHF-(DLPNO)-IP/EA/STEOM-CCSD. UHF-CVS-IP/STEOM-CCSD   
  Vijay G. Chilkuri      : MRCI spin determinant printing, contributions to CSF-ICE 
  Pauline Colinet        : FMM embedding                                 
  Dipayan Datta          : RHF DLPNO-CCSD density                        
  Achintya Kumar Dutta   : EOM-CC, STEOM-CC                              
  Nicolas Foglia         : Exact transition moments, OPA infrastructure, MCD improvements    
  Dmitry Ganyushin       : Spin-Orbit,Spin-Spin,Magnetic field MRCI      
  Miquel Garcia-Rates    : C-PCM and meta-GGA Hessian, CCSD/C-PCM, Gaussian charge scheme 
  Tiago L. C. Gouveia    : GS-ROHF, GS-ROCIS                             
  Yang Guo               : DLPNO-NEVPT2, F12-NEVPT2, CIM, IAO-localization        
  Andreas Hansen         : Spin unrestricted coupled pair/coupled cluster methods 
  Ingolf Harden          : AUTO-CI MPn and infrastructure                
  Benjamin Helmich-Paris : MC-RPA, TRAH-(SCF,CASSCF), AVAS, COSX integrals, SCF dyn. polar. 
  Lee Huntington         : MR-EOM, pCC                                   
  Robert Izsak           : Overlap fitted RIJCOSX, COSX-SCS-MP3, EOM     
  Riya Kayal             : Wick's Theorem for AUTO-CI, AUTO-CI UHF-CCSDT 
  Emily Kempfer          : AUTO-CI, RHF CISDT and CCSDT                  
  Christian Kollmar      : KDIIS, OOCD, Brueckner-CCSD(T), CCSD density, CASPT2, CASPT2-K, improved NEVPT2 
  Axel Koslowski         : Symmetry handling                             
  Simone Kossmann        : meta-GGA functionals, TD-DFT gradient, OOMP2, (MP2 Hessian; deprecated post 5.0) 
  Lucas Lang             : DCDCAS                                        
  Marvin Lechner         : AUTO-CI (C++ implementation), FIC-MRCC        
  Spencer Leger          : CASSCF response                               
  Dagmar Lenk            : GEPOL surface, SMD, ORCA-2-JSON               
  Dimitrios Liakos       : Extrapolation schemes; Compound Job, initial MDCI parallelization 
  Dimitrios Manganas     : Further ROCIS development; embedding schemes. LFT, Crystal Embedding 
  Dimitrios Pantazis     : SARC Basis sets                               
  Anastasios Papadopoulos: AUTO-CI, single reference methods and gradients 
  Taras Petrenko         : pre 6.0 DFT Hessian and TD-DFT gradient, (ASA, deprecated), ECA, 1-Electron XAS/XES, NRVS 
  Peter Pinski           : DLPNO-MP2, DLPNO-MP2 Gradient                 
  Christoph Reimann      : Effective Core Potentials                     
  Marius Retegan         : Local ZFS, SOC                                
  Christoph Riplinger    : Optimizer, TS searches, QM/MM, DLPNO-CCSD(T), (RO)-DLPNO pert. Triples 
  Michael Roemelt        : Original ROCIS implementation                 
  Masaaki Saitow         : Open-shell DLPNO-CCSD energy and density      
  Barbara Sandhoefer     : DKH picture change effects                    
  Kantharuban Sivalingam : CASSCF convergence/infrastructure, NEVPT2 and variants, FIC-MRCI 
  Bernardo de Souza      : ESD, SOC TD-DFT                               
  Georgi L. Stoychev     : AutoAux, RI-MP2 NMR, DLPNO-MP2 response, X2C  
  Van Anh Tran           : RI-MP2 g-tensors                              
  Willem Van den Heuvel  : Paramagnetic NMR                              
  Zikuan Wang            : NOTCH, Electric field optimization            
  Frank Wennmohs         : Technical directorship and infrastructure     
  Hang Xu                : AUTO-CI-Response properties                   
                                                                         
[FACCTs GmbH]                                                            
  Markus Bursch, Miquel Garcia-Rates, Christoph Riplinger, Bernardo de Souza, Georgi L. Stoychev 
                                                                 
  APM, Basis sets (HGBS, AHGBS, def-TZVP (Ac-Lr), def2-XVPD (La-Lu)), CI-OPT, improved COSX, DLPNO-Multilevel,           
  DOCKER, DRACO, updates on ESD, GOAT, IRC, LR-CPCM, MBIS, meta-GGA TD-DFT gradient, ML-optimized integration grids, 
  MM, NACMEs, nearIR, NEB, NEB-TS, NL-DFT gradient (VV10), 2- and 3-layer-ONIOM, interface openCOSMO-RS, QMMM,   
  Crystal-QMMM, SF, symmetry and pop. for TD-DFT, r2SCAN hybrids, SOLVATOR                                   
                                                                         
[Other institutions]                                                     
  V. Asgeirsson          : NEB                                           
  Christoph Bannwarth    : sTDA-DFT, sTD-DFT, PBEh-3c, B97-3c, D3        
  Sebastian Ehlert       : rSCAN, r2SCAN, r2SCAN-3c, D4, dhf basis sets  
  Marvin Friede          : D4 for Fr, Ra, Ac-Lr                          
  Lars Goerigk           : TD-DFT with DH, B97 family of functionals     
  Stefan Grimme          : VdW corrections, initial TS optimization, DFT functionals, gCP, sTDA/sTD-DF 
  Waldemar Hujo          : DFT-NL                                        
  H. Jonsson             : NEB                                           
  Holger Kruse           : gCP                                           
  Marcel Mueller         : wB97X-3c, vDZP basis set                      
  Hagen Neugebauer       : wr2SCAN                                       
  Tobias Risthaus        : range-separated hybrid DFT                    
  Lukas Wittmann         : regularized MP2, r2SCAN double-hybrids, wr2SCAN        
                                                                         
We gratefully acknowledge several colleagues who have allowed us to      
interface, adapt or use parts of their codes:                            
  Ed Valeev, F. Pavosevic, A. Kumar             : LibInt (2-el integral package), F12 methods 
  Garnet Chan, S. Sharma, J. Yang, R. Olivares  : DMRG                   
  Ulf Ekstrom                                   : XCFun DFT Library      
  Mihaly Kallay                                 : mrcc  (arbitrary order and MRCC methods)
  Frank Weinhold                                : gennbo (NPA and NBO analysis)           
  Simon Mueller                                 : openCOSMO-RS                            
  Christopher J. Cramer and Donald G. Truhlar   : smd solvation model                     
  S Lehtola, MJT Oliveira, MAL Marques          : LibXC Library                           
  Liviu Ungur et al                             : ANISO software                          


 Your calculation uses the libint2 library for the computation of 2-el integrals
 For citations please refer to: http://libint.valeyev.net

 Your ORCA version has been built with support for libXC version: 6.2.2
 For citations please refer to: https://libxc.gitlab.io

 This ORCA versions uses:
   CBLAS   interface :  Fast vector & matrix operations
   LAPACKE interface :  Fast linear algebra routines
   SCALAPACK package :  Parallel linear algebra routines
   Shared memory     :  Shared parallel matrices
   BLAS/LAPACK       :  OpenBLAS 0.3.27  USE64BITINT DYNAMIC_ARCH NO_AFFINITY Bulldozer SINGLE_THREADED
        Core in use  :  Bulldozer
   Copyright (c) 2011-2014, The OpenBLAS Project


NOTE: MaxCore=3000 MB was set to SCF,MP2,MDCI,CIPSI,MRCI and CIS
      => If you want to overwrite this, your respective input block should be placed after the MaxCore statement
Your calculation utilizes the atom-pairwise dispersion correction
with the Becke-Johnson damping scheme (D3BJ)


================================================================================

----- Orbital basis set information -----
Your calculation utilizes the basis: def2-SVP
   F. Weigend and R. Ahlrichs, Phys. Chem. Chem. Phys. 7, 3297 (2005).

----- AuxJ basis set information -----
Your calculation utilizes the auxiliary basis: def2/J
   F. Weigend, Phys. Chem. Chem. Phys. 8, 1057 (2006).

================================================================================
                                        WARNINGS
                       Please study these warnings very carefully!
================================================================================

WARNING: Old DensityContainer found on disk!
         Will remove this file - 
         If you want to keep old densities, please start your calculation with a different basename. 


WARNING: The chosen methods will break translational/rotational symmetry
  ===> : Will NOT project out the translational and rotational degrees of freedom
         of the Hessians, in case Hessians are calculated!

WARNING: The chosen methods will break translational symmetry
  ===> : Will NOT exploit translational invariance of the Hessians,
         in case Hessians are calculated!

WARNING: The chosen methods will break translational symmetry
  ===> : Will NOT make the numerical gradients translationally invariant,
         in case numerical gradients are calculated!

================================================================================
                                       INPUT FILE
================================================================================
NAME = polf_TS_pc.inp
|  1> ! B3LYP D3BJ def2-SVP def2/J RIJCOSX CPCM KeepDens
|  2> %maxcore 3000
|  3> %pal nprocs 8 end
|  4> %cpcm epsilon 4.0 end
|  5> %scf MaxIter 300 end
|  6> %pointcharges "design_K2_free.pc"
|  7> * xyz -2 1
|  8> C     19.71825481    41.08376387    56.97302294
|  9> H     19.51998914    41.92482362    56.30836658
| 10> H     19.37641528    41.12968172    58.00544975
| 11> C     20.13166662    39.88130127    56.41496061
| 12> C     20.50252906    39.85764400    54.91806968
| 13> O     20.06536473    40.77641660    54.18479265
| 14> O     21.21261668    38.89130216    54.53088373
| 15> O     20.32721824    38.82622612    57.10753495
| 16> C     22.16620765    38.97618677    58.25575746
| 17> H     21.95657718    38.06499850    58.81845878
| 18> C     21.84499979    40.21468356    58.78898825
| 19> H     21.26724075    40.29993641    59.71060709
| 20> C     22.02567517    41.36546521    58.01391215
| 21> C     22.90608916    41.29169284    56.85015884
| 22> H     23.12581168    42.22633481    56.33391133
| 23> C     23.45299888    40.12649983    56.45353382
| 24> H     24.15495295    40.08949566    55.61550470
| 25> C     23.13109136    38.81190798    57.10043805
| 26> H     22.61436549    38.21503319    56.33072233
| 27> O     24.33475109    38.17937608    57.52900571
| 28> H     24.29675361    37.21522165    57.38386253
| 29> C     21.60247124    42.73276948    58.55430593
| 30> O     22.00092891    43.75937103    57.94572530
| 31> O     20.85458622    42.74962686    59.56440370
| 32> *
| 33> 
| 34>                          ****END OF INPUT****
================================================================================

                       ****************************
                       * Single Point Calculation *
                       ****************************

---------------------------------
CARTESIAN COORDINATES (ANGSTROEM)
---------------------------------
  C     19.718255   41.083764   56.973023
  H     19.519989   41.924824   56.308367
  H     19.376415   41.129682   58.005450
  C     20.131667   39.881301   56.414961
  C     20.502529   39.857644   54.918070
  O     20.065365   40.776417   54.184793
  O     21.212617   38.891302   54.530884
  O     20.327218   38.826226   57.107535
  C     22.166208   38.976187   58.255757
  H     21.956577   38.064999   58.818459
  C     21.845000   40.214684   58.788988
  H     21.267241   40.299936   59.710607
  C     22.025675   41.365465   58.013912
  C     22.906089   41.291693   56.850159
  H     23.125812   42.226335   56.333911
  C     23.452999   40.126500   56.453534
  H     24.154953   40.089496   55.615505
  C     23.131091   38.811908   57.100438
  H     22.614365   38.215033   56.330722
  O     24.334751   38.179376   57.529006
  H     24.296754   37.215222   57.383863
  C     21.602471   42.732769   58.554306
  O     22.000929   43.759371   57.945725
  O     20.854586   42.749627   59.564404

----------------------------
CARTESIAN COORDINATES (A.U.)
----------------------------
  NO LB      ZA    FRAG     MASS         X           Y           Z
   0 C     6.0000    0    12.011   37.262101   77.637062  107.663410
   1 H     1.0000    0     1.008   36.887434   79.226435  106.407392
   2 H     1.0000    0     1.008   36.616118   77.723834  109.614414
   3 C     6.0000    0    12.011   38.043337   75.364737  106.608825
   4 C     6.0000    0    12.011   38.744165   75.320032  103.780111
   5 O     8.0000    0    15.999   37.918044   77.056260  102.394419
   6 O     8.0000    0    15.999   40.086036   73.493910  103.048436
   7 O     8.0000    0    15.999   38.412876   73.370934  107.917601
   8 C     6.0000    0    12.011   41.888062   73.654319  110.087427
   9 H     1.0000    0     1.008   41.491918   71.932422  111.150779
  10 C     6.0000    0    12.011   41.281067   75.994738  111.095087
  11 H     1.0000    0     1.008   40.189261   76.155843  112.836695
  12 C     6.0000    0    12.011   41.622494   78.169401  109.630406
  13 C     6.0000    0    12.011   43.286235   78.029991  107.431231
  14 H     1.0000    0     1.008   43.701451   79.796208  106.455664
  15 C     6.0000    0    12.011   44.319745   75.828095  106.681718
  16 H     1.0000    0     1.008   45.646246   75.758168  105.098073
  17 C     6.0000    0    12.011   43.711428   73.343877  107.904190
  18 H     1.0000    0     1.008   42.734957   72.215947  106.449638
  19 O     8.0000    0    15.999   45.986015   72.148565  108.714066
  20 H     1.0000    0     1.008   45.914210   70.326577  108.439785
  21 C     6.0000    0    12.011   40.822754   80.753231  110.651602
  22 O     8.0000    0    15.999   41.575730   82.693227  109.501551
  23 O     8.0000    0    15.999   39.409457   80.785087  112.560410

--------------------------------
INTERNAL COORDINATES (ANGSTROEM)
--------------------------------
 C      0   0   0     0.000000000000     0.00000000     0.00000000
 H      1   0   0     1.090164600351     0.00000000     0.00000000
 H      1   2   0     1.088516344033   119.24923047     0.00000000
 C      1   2   3     1.388617727530   118.50237778   166.11898254
 C      4   1   2     1.542329754671   118.35368881     9.49117571
 O      5   4   1     1.254173410921   118.18972166   339.70880403
 O      5   4   1     1.260140444430   116.45297913   160.72684327
 O      4   1   2     1.277138686541   122.88981716   183.33020584
 C      8   4   1     2.173196995008   111.04392456   285.93403847
 H      9   8   4     1.091256969218    92.99613263   171.27729619
 C      9   8   4     1.386139914861    93.94593351    50.70196512
 H     11   9   8     1.091079668483   121.16206312    87.85057469
 C     11   9   8     1.399172955608   119.46199013   280.64841797
 C     13  11   9     1.461127278131   118.52174131   341.62063313
 H     14  13  11     1.090112420561   117.08755655   187.18899785
 C     14  13  11     1.346883958949   121.52659581     5.38517841
 H     16  14  13     1.093801458655   121.02902228   183.45656043
 C     16  14  13     1.500087086242   122.95633199     4.54201555
 H     18  16  14     1.102600303501   105.89728924   114.49387411
 O     18  16  14     1.425680044519   109.71051682   234.86126645
 H     20  18  16     0.975758226240   111.14946637   218.36180159
 C     13  11   9     1.529917635231   120.24291991   176.49136362
 O     22  13  11     1.258193006043   118.08343232   167.05558190
 O     22  13  11     1.256946172022   117.41450924   345.62360757

---------------------------
INTERNAL COORDINATES (A.U.)
---------------------------
 C      0   0   0     0.000000000000     0.00000000     0.00000000
 H      1   0   0     2.060112535560     0.00000000     0.00000000
 H      1   2   0     2.056997782519   119.24923047     0.00000000
 C      1   2   3     2.624107209740   118.50237778   166.11898254
 C      4   1   2     2.914580844526   118.35368881     9.49117571
 O      5   4   1     2.370044271086   118.18972166   339.70880403
 O      5   4   1     2.381320330251   116.45297913   160.72684327
 O      4   1   2     2.413442352598   122.88981716   183.33020584
 C      8   4   1     4.106747155626   111.04392456   285.93403847
 H      9   8   4     2.062176813556    92.99613263   171.27729619
 C      9   8   4     2.619424822384    93.94593351    50.70196512
 H     11   9   8     2.061841763723   121.16206312    87.85057469
 C     11   9   8     2.644053700089   119.46199013   280.64841797
 C     13  11   9     2.761130402470   118.52174131   341.62063313
 H     14  13  11     2.060013930047   117.08755655   187.18899785
 C     14  13  11     2.545241816585   121.52659581     5.38517841
 H     16  14  13     2.066985201741   121.02902228   183.45656043
 C     16  14  13     2.834753770030   122.95633199     4.54201555
 H     18  16  14     2.083612608795   105.89728924   114.49387411
 O     18  16  14     2.694144838737   109.71051682   234.86126645
 H     20  18  16     1.843915820515   111.14946637   218.36180159
 C     13  11   9     2.891125338043   120.24291991   176.49136362
 O     22  13  11     2.377640205036   118.08343232   167.05558190
 O     22  13  11     2.375284030202   117.41450924   345.62360757

---------------------
BASIS SET INFORMATION
---------------------
There are 3 groups of distinct atoms

 Group   1 Type C   : 7s4p1d contracted to 3s2p1d pattern {511/31/1}
 Group   2 Type H   : 4s1p contracted to 2s1p pattern {31/1}
 Group   3 Type O   : 7s4p1d contracted to 3s2p1d pattern {511/31/1}

Atom   0C    basis set group =>   1
Atom   1H    basis set group =>   2
Atom   2H    basis set group =>   2
Atom   3C    basis set group =>   1
Atom   4C    basis set group =>   1
Atom   5O    basis set group =>   3
Atom   6O    basis set group =>   3
Atom   7O    basis set group =>   3
Atom   8C    basis set group =>   1
Atom   9H    basis set group =>   2
Atom  10C    basis set group =>   1
Atom  11H    basis set group =>   2
Atom  12C    basis set group =>   1
Atom  13C    basis set group =>   1
Atom  14H    basis set group =>   2
Atom  15C    basis set group =>   1
Atom  16H    basis set group =>   2
Atom  17C    basis set group =>   1
Atom  18H    basis set group =>   2
Atom  19O    basis set group =>   3
Atom  20H    basis set group =>   2
Atom  21C    basis set group =>   1
Atom  22O    basis set group =>   3
Atom  23O    basis set group =>   3
---------------------------------
AUXILIARY/J BASIS SET INFORMATION
---------------------------------
There are 3 groups of distinct atoms

 Group   1 Type C   : 12s5p4d2f1g contracted to 6s4p3d1f1g pattern {711111/2111/211/2/1}
 Group   2 Type H   : 5s2p1d contracted to 3s1p1d pattern {311/2/1}
 Group   3 Type O   : 12s5p4d2f1g contracted to 6s4p3d1f1g pattern {711111/2111/211/2/1}

Atom   0C    basis set group =>   1
Atom   1H    basis set group =>   2
Atom   2H    basis set group =>   2
Atom   3C    basis set group =>   1
Atom   4C    basis set group =>   1
Atom   5O    basis set group =>   3
Atom   6O    basis set group =>   3
Atom   7O    basis set group =>   3
Atom   8C    basis set group =>   1
Atom   9H    basis set group =>   2
Atom  10C    basis set group =>   1
Atom  11H    basis set group =>   2
Atom  12C    basis set group =>   1
Atom  13C    basis set group =>   1
Atom  14H    basis set group =>   2
Atom  15C    basis set group =>   1
Atom  16H    basis set group =>   2
Atom  17C    basis set group =>   1
Atom  18H    basis set group =>   2
Atom  19O    basis set group =>   3
Atom  20H    basis set group =>   2
Atom  21C    basis set group =>   1
Atom  22O    basis set group =>   3
Atom  23O    basis set group =>   3


           ************************************************************
           *        Program running with 8 parallel MPI-processes     *
           *              working on a common directory               *
           ************************************************************
------------------------------------------------------------------------------
                             ORCA STARTUP CALCULATIONS
                           -- RI-GTO INTEGRALS CHOSEN --
------------------------------------------------------------------------------
------------------------------------------------------------------------------
                   ___                                                        
                  /   \      - P O W E R E D   B Y -                         
                 /     \                                                     
                 |  |  |   _    _      __       _____    __    __             
                 |  |  |  | |  | |    /  \     |  _  \  |  |  /  |          
                  \  \/   | |  | |   /    \    | | | |  |  | /  /          
                 / \  \   | |__| |  /  /\  \   | |_| |  |  |/  /          
                |  |  |   |  __  | /  /__\  \  |    /   |      \           
                |  |  |   | |  | | |   __   |  |    \   |  |\   \          
                \     /   | |  | | |  |  |  |  | |\  \  |  | \   \       
                 \___/    |_|  |_| |__|  |__|  |_| \__\ |__|  \__/        
                                                                              
                      - O R C A' S   B I G   F R I E N D -                    
                                      &                                       
                       - I N T E G R A L  F E E D E R -                       
                                                                              
 v1 FN, 2020, v2 2021, v3 2022-2024                                           
------------------------------------------------------------------------------


----------------------
SHARK INTEGRAL PACKAGE
----------------------

Number of atoms                             ...     24
Number of basis functions                   ...    264
Number of shells                            ...    120
Maximum angular momentum                    ...      2
Integral batch strategy                     ... SHARK/LIBINT Hybrid
RI-J (if used) integral strategy            ... SPLIT-RIJ (Revised 2003 algorithm where possible)
Printlevel                                  ...      1
Contraction scheme used                     ... SEGMENTED contraction
Prescreening option                         ... SCHWARTZ
   Thresh                                   ... 1.000e-10
   Tcut                                     ... 1.000e-11
   Tpresel                                  ... 1.000e-11 
Coulomb Range Separation                    ... NOT USED
Exchange Range Separation                   ... NOT USED
Multipole approximations                    ... NOT USED
Finite Nucleus Model                        ... NOT USED
CABS basis                                  ... NOT available
Auxiliary Coulomb fitting basis             ... AVAILABLE
   # of basis functions in Aux-J            ...    872
   # of shells in Aux-J                     ...    280
   Maximum angular momentum in Aux-J        ...      4
Auxiliary J/K fitting basis                 ... NOT available
Auxiliary Correlation fitting basis         ... NOT available
Auxiliary 'external' fitting basis          ... NOT available

Checking pre-screening integrals            ... done (  0.0 sec) Dimension = 120
Check shell pair data                       ... done (  0.0 sec)
Shell pair information
Shell pair cut-off parameter TPreSel        ...   1.0e-11
Total number of shell pairs                 ...      7260
Shell pairs after pre-screening             ...      6253
Total number of primitive shell pairs       ...     27260
Primitive shell pairs kept                  ...     15608
          la=0 lb=0:   1781 shell pairs
          la=1 lb=0:   2254 shell pairs
          la=1 lb=1:    741 shell pairs
          la=2 lb=0:    831 shell pairs
          la=2 lb=1:    542 shell pairs
          la=2 lb=2:    104 shell pairs

Reading point charge file                   ... ok (2 point charges)
Calculating one electron integrals          ... done (  0.0 sec)
Calculating RI/J V-Matrix + Cholesky decomp.... done (  0.3 sec)
Calculating Nuclear repulsion               ... (+Point charges) done (  0.0 sec) ENN=   1138.995967206855 Eh

Diagonalization of the overlap matrix:
Smallest eigenvalue                        ... 3.801e-04
Time for diagonalization                   ...    0.019 sec
Threshold for overlap eigenvalues          ... 1.000e-07
Number of eigenvalues below threshold      ... 0
Time for construction of square roots      ...    0.023 sec
Total time needed                          ...    0.059 sec

-------------------
DFT GRID GENERATION
-------------------

General Integration Accuracy     IntAcc      ... 4.388
Radial Grid Type                 RadialGrid  ... OptM3 with GC (2021)
Angular Grid (max. ang.)         AngularGrid ... 4 (Lebedev-302)
Angular grid pruning method      GridPruning ... 4 (adaptive)
Weight generation scheme         WeightScheme... mBecke (2022)
Basis function cutoff            BFCut       ... 1.0000e-10
Integration weight cutoff        WCut        ... 1.0000e-14
Partially contracted basis set               ... off
Rotationally invariant grid construction     ... off
Angular grids for H and He will be reduced by one unit

Total number of grid points                  ...   121579
Total number of batches                      ...     1911
Average number of points per batch           ...       63
Average number of grid points per atom       ...     5066

--------------------
COSX GRID GENERATION
--------------------

GRIDX 1
-------
General Integration Accuracy     IntAcc      ... 3.816
Radial Grid Type                 RadialGrid  ... OptM3 with GC (2021)
Angular Grid (max. ang.)         AngularGrid ... 1 (Lebedev-50)
Angular grid pruning method      GridPruning ... 4 (adaptive)
Weight generation scheme         WeightScheme... mBecke (2022)
Basis function cutoff            BFCut       ... 1.0000e-10
Integration weight cutoff        WCut        ... 1.0000e-14
Partially contracted basis set               ... on
Rotationally invariant grid construction     ... off
Angular grids for H and He will be reduced by one unit

Total number of grid points                  ...    15390
Total number of batches                      ...      133
Average number of points per batch           ...      115
Average number of grid points per atom       ...      641
UseSFitting                                  ... on

GRIDX 2
-------
General Integration Accuracy     IntAcc      ... 4.020
Radial Grid Type                 RadialGrid  ... OptM3 with GC (2021)
Angular Grid (max. ang.)         AngularGrid ... 2 (Lebedev-110)
Angular grid pruning method      GridPruning ... 4 (adaptive)
Weight generation scheme         WeightScheme... mBecke (2022)
Basis function cutoff            BFCut       ... 1.0000e-10
Integration weight cutoff        WCut        ... 1.0000e-14
Partially contracted basis set               ... on
Rotationally invariant grid construction     ... off
Angular grids for H and He will be reduced by one unit

Total number of grid points                  ...    34385
Total number of batches                      ...      281
Average number of points per batch           ...      122
Average number of grid points per atom       ...     1433
UseSFitting                                  ... on

GRIDX 3
-------
General Integration Accuracy     IntAcc      ... 4.338
Radial Grid Type                 RadialGrid  ... OptM3 with GC (2021)
Angular Grid (max. ang.)         AngularGrid ... 3 (Lebedev-194)
Angular grid pruning method      GridPruning ... 4 (adaptive)
Weight generation scheme         WeightScheme... mBecke (2022)
Basis function cutoff            BFCut       ... 1.0000e-10
Integration weight cutoff        WCut        ... 1.0000e-14
Partially contracted basis set               ... on
Rotationally invariant grid construction     ... off
Angular grids for H and He will be reduced by one unit

Total number of grid points                  ...    75483
Total number of batches                      ...      601
Average number of points per batch           ...      125
Average number of grid points per atom       ...     3145
UseSFitting                                  ... on
Initializing property integral containers    ... done (  0.0 sec)

SHARK setup successfully completed in   4.9 seconds

Maximum memory used throughout the entire STARTUP-calculation: 33.8 MB


           ************************************************************
           *        Program running with 8 parallel MPI-processes     *
           *              working on a common directory               *
           ************************************************************
-------------------------------------------------------------------------------
                                 ORCA GUESS
                   Start orbitals & Density for SCF / CASSCF
-------------------------------------------------------------------------------

------------
SCF SETTINGS
------------
Hamiltonian:
 Density Functional     Method          .... DFT(GTOs)
 Exchange Functional    Exchange        .... B88
   X-Alpha parameter    XAlpha          ....  0.666667
   Becke's b parameter  XBeta           ....  0.004200
 Correlation Functional Correlation     .... LYP
 LDA part of GGA corr.  LDAOpt          .... VWN-5
 Gradients option       PostSCFGGA      .... off
 Hybrid DFT is turned on
   Fraction HF Exchange ScalHFX         ....  0.200000
   Scaling of DF-GGA-X  ScalDFX         ....  0.720000
   Scaling of DF-GGA-C  ScalDFC         ....  0.810000
   Scaling of DF-LDA-C  ScalLDAC        ....  1.000000
   Perturbative correction              ....  0.000000
   NL short-range parameter             ....  4.800000
 RI-approximation to the Coulomb term is turned on
   Number of AuxJ basis functions       .... 872
   RIJ-COSX (HFX calculated with COS-X)).... on


General Settings:
 Integral files         IntName         .... polf_TS_pc
 Hartree-Fock type      HFTyp           .... RHF
 Total Charge           Charge          ....   -2
 Multiplicity           Mult            ....    1
 Number of Electrons    NEL             ....  118
 Basis Dimension        Dim             ....  264
 Nuclear Repulsion      ENuc            ....   1138.9959672069 Eh

Convergence Acceleration:
 AO-DIIS                CNVDIIS         .... on
   Start iteration      DIISMaxIt       ....    12
   Startup error        DIISStart       ....  0.200000
   # of expansion vecs  DIISMaxEq       ....     5
   Bias factor          DIISBfac        ....   1.050
   Max. coefficient     DIISMaxC        ....  10.000
 MO-DIIS                CNVKDIIS        .... off
 Trust-Rad. Augm. Hess. CNVTRAH         .... auto
   Auto Start mean grad. ratio tolernc. ....  1.125000
   Auto Start start iteration           ....    50
   Auto Start num. interpolation iter.  ....    10
   Max. Number of Micro iterations      ....    24
   Max. Number of Macro iterations      .... Maxiter - #DIIS iter
   Number of Davidson start vectors     ....     2
   Converg. threshold    (grad. norm)   ....   5.000e-05
   Grad. Scal. Fac. for Micro threshold ....   0.100
   Minimum threshold for Micro iter.    ....   1.000e-02
   NR start threshold (gradient norm)   ....   1.000e-04
   Initial trust radius                 ....   0.400
   Minimum AH scaling param. (alpha)    ....   1.000
   Maximum AH scaling param. (alpha)    .... 1000.000
   Quad. conv. algorithm                .... NR
   White noise on init. David. guess    .... on
   Maximum white noise                  ....   0.010
   Pseudo random numbers                .... off
   Inactive MOs                         .... canonical
   Orbital update algorithm             .... Taylor
   Preconditioner                       .... Diag
   Full preconditioner red. dimension   ....   250
 SOSCF                  CNVSOSCF        .... on
   Start iteration      SOSCFMaxIt      ....   150
   Startup grad/error   SOSCFStart      ....  0.003300
   Hessian update       SOSCFHessUp     .... L-BFGS
 Level Shifting         CNVShift        .... on
   Level shift para.    LevelShift      ....    0.2500
   Turn off err/grad.   ShiftErr        ....    0.0010
 Zerner damping         CNVZerner       .... off
 Static damping         CNVDamp         .... on
   Fraction old density DampFac         ....    0.7000
   Max. Damping (<1)    DampMax         ....    0.9800
   Min. Damping (>=0)   DampMin         ....    0.0000
   Turn off err/grad.   DampErr         ....    0.1000

SCF Procedure:
 Maximum # iterations   MaxIter         ....   300
 SCF integral mode      SCFMode         .... Direct
   Integral package                     .... SHARK and LIBINT hybrid scheme
 Reset frequency        DirectResetFreq ....    20
 Integral Threshold     Thresh          ....  1.000e-10 Eh
 Primitive CutOff       TCut            ....  1.000e-11 Eh

Convergence Tolerance:
 Convergence Check Mode ConvCheckMode   .... Total+1el-Energy
 Convergence forced     ConvForced      .... 0
 Energy Change          TolE            ....  1.000e-06 Eh
 1-El. energy change                    ....  1.000e-03 Eh
 Orbital Gradient       TolG            ....  5.000e-05
 Orbital Rotation angle TolX            ....  5.000e-05
 DIIS Error             TolErr          ....  1.000e-06

------------------------------
INITIAL GUESS: MODEL POTENTIAL
------------------------------
Loading Hartree-Fock densities                     ... done
Calculating cut-offs                               ... done
Initializing the effective Hamiltonian             ... done
Setting up the integral package (SHARK)            ... done
Starting the Coulomb interaction                   ... done (   0.2 sec)
Making the grid                                    ... done (   0.5 sec)
Mapping shells                                     ... done
Starting the XC term evaluation                    ... done (   0.1 sec)
  promolecular density results
     # of electrons  =    115.995225221
     EX              =   -102.792233472
     EC              =     -4.053498435
     EX+EC           =   -106.845731907
Transforming the Hamiltonian                       ... done (   0.0 sec)
Diagonalizing the Hamiltonian                      ... done (   0.0 sec)
Back transforming the eigenvectors                 ... done (   0.0 sec)
Now organizing SCF variables                       ... done
                      ------------------
                      INITIAL GUESS DONE (   1.0 sec)
                      ------------------
             **** ENERGY FILE WAS UPDATED (polf_TS_pc.en.tmp) ****
Finished Guess after   1.8 sec
Maximum memory used throughout the entire GUESS-calculation: 19.9 MB


           ************************************************************
           *        Program running with 8 parallel MPI-processes     *
           *              working on a common directory               *
           ************************************************************

-------------------------------------------------------------------------------------------
                                      ORCA LEAN-SCF
                              memory conserving SCF solver
-------------------------------------------------------------------------------------------

--------------------
CPCM SOLVATION MODEL
--------------------
CPCM parameters:
  Epsilon                                         ...       4.0000
  Refrac                                          ...       1.3300
  Rsolv                                           ...       1.3000
  Surface type                                    ... GAUSSIAN VDW
  Discretization scheme                           ... Constant charge density
    Threshold for H atoms                         ...       5.0000 (charges/Ang^2)
    Threshold for non-H atoms                     ...       5.0000 (charges/Ang^2)
  Epsilon function type                           ...         CPCM
Solvent:                                          ... CUSTOM
Radii:
  Scheme                                          ... Element-dependent radii
  Radius for C  used is    3.8550 Bohr (=   2.0400 Ang.)
  Radius for H  used is    2.4944 Bohr (=   1.3200 Ang.)
  Radius for O  used is    3.4469 Bohr (=   1.8240 Ang.)
Calculating surface                               ...        done! (  0.0s)
Cavity surface points                             ...         2059
Cavity Volume                                     ...    1640.4641
Cavity Surface-area                               ...     846.4113
Calculating surface distance matrix               ...        done! (  0.1s)
Performing Cholesky decomposition & store         ...        done! (  0.5s)
Overall time for CPCM initialization              ...                 0.6s

----------------------------------------D-I-I-S--------------------------------------------
Iteration    Energy (Eh)           Delta-E    RMSDP     MaxDP     DIISErr   Damp  Time(sec)
-------------------------------------------------------------------------------------------
               ***  Starting incremental Fock matrix formation  ***
    1    -836.0154455551030424     0.00e+00  4.96e-03  2.19e-01  3.31e-01  0.700   4.6
Warning: op=0 Small HOMO/LUMO gap (   0.059) - skipping pre-diagonalization
         Will do a full diagonalization
    2    -836.3224272303418729    -3.07e-01  3.38e-03  1.62e-01  1.23e-01  0.700   3.3
                               ***Turning on AO-DIIS***
    3    -836.4336824696106305    -1.11e-01  1.32e-03  5.00e-02  3.96e-02  0.700   3.0
    4    -836.5017968036368075    -6.81e-02  2.03e-03  4.29e-02  1.83e-02  0.000   3.1
    5    -836.6548775488272440    -1.53e-01  5.53e-04  2.77e-02  7.61e-03  0.000   3.1
                              *** Initializing SOSCF ***
---------------------------------------S-O-S-C-F--------------------------------------
Iteration    Energy (Eh)           Delta-E    RMSDP     MaxDP     MaxGrad    Time(sec)
--------------------------------------------------------------------------------------
    6    -836.6558289166939630    -9.51e-04  1.76e-04  6.44e-03  1.40e-03     3.1
               *** Restarting incremental Fock matrix formation ***
    7    -836.6558760104217072    -4.71e-05  1.43e-04  4.48e-03  4.33e-04     5.2
    8    -836.6558947788137175    -1.88e-05  6.89e-05  1.80e-03  3.57e-04     3.9
    9    -836.6559017415374910    -6.96e-06  4.63e-05  1.50e-03  2.95e-04     3.6
   10    -836.6559049414463516    -3.20e-06  1.88e-05  6.81e-04  1.42e-04     3.5
   11    -836.6559056576331841    -7.16e-07  1.24e-05  3.03e-04  9.74e-05     3.5
                 **** Energy Check signals convergence ****

               *****************************************************
               *                     SUCCESS                       *
               *           SCF CONVERGED AFTER  11 CYCLES          *
               *****************************************************

Recomputing exchange energy using gridx3       ... done (    5.822 sec)
Old exchange energy                            :    -20.871383688 Eh
New exchange energy                            :    -20.871386720 Eh
Exchange energy change after final integration :     -0.000003032 Eh
Total energy after final integration           :   -836.655908690 Eh
             **** ENERGY FILE WAS UPDATED (polf_TS_pc.en.tmp) ****

----------------
TOTAL SCF ENERGY
----------------

Total Energy       :       -836.65590868961306 Eh          -22766.56471 eV

Components:
Nuclear Repulsion  :       1138.99596720685531 Eh           30993.65595 eV
Electronic Energy  :      -1975.42161756599171 Eh          -53753.95501 eV
One Electron Energy:      -3423.33629120368005 Eh          -93153.71633 eV
Two Electron Energy:       1447.91467363768834 Eh           39399.76131 eV
CPCM Dielectric    :         -0.23025529849681 Eh              -6.26557 eV

Virial components:
Potential Energy   :      -1666.03319239850771 Eh          -45335.06796 eV
Kinetic Energy     :        829.37728370889465 Eh           22568.50325 eV
Virial Ratio       :          2.00877601198356

DFT components:
N(Alpha)           :       59.000017419015 electrons
N(Beta)            :       59.000017419015 electrons
N(Total)           :      118.000034838030 electrons
E(X)               :      -83.101203739067 Eh       
E(C)               :       -4.843816240491 Eh       
E(XC)              :      -87.945019979558 Eh       

CPCM Solvation Model Properties:
Surface-charge          :          1.98261848658417
Corrected charge        :          2.00000000000000
Outlying charge corr.   :          0.00001453406916 Eh               0.00040 eV
Free-energy (cav+disp)  :  This term is not implemented in the current solvation scheme

---------------
SCF CONVERGENCE
---------------

  Last Energy change         ...    7.1619e-07  Tolerance :   1.0000e-06
  Last MAX-Density change    ...    3.0281e-04  Tolerance :   1.0000e-05
  Last RMS-Density change    ...    1.2443e-05  Tolerance :   1.0000e-06
  Last DIIS Error            ...    1.3962e-03  Tolerance :   1.0000e-06
  Last Orbital Gradient      ...    9.7399e-05  Tolerance :   5.0000e-05
  Last Orbital Rotation      ...    2.4892e-04  Tolerance :   5.0000e-05


----------------
ORBITAL ENERGIES
----------------

  NO   OCC          E(Eh)            E(eV) 
   0   2.0000     -19.248599      -523.7810 
   1   2.0000     -19.239625      -523.5368 
   2   2.0000     -19.153436      -521.1915 
   3   2.0000     -19.146942      -521.0148 
   4   2.0000     -19.133903      -520.6600 
   5   2.0000     -19.131335      -520.5901 
   6   2.0000     -10.355725      -281.7936 
   7   2.0000     -10.348428      -281.5950 
   8   2.0000     -10.346200      -281.5344 
   9   2.0000     -10.341213      -281.3987 
  10   2.0000     -10.336414      -281.2681 
  11   2.0000     -10.322031      -280.8767 
  12   2.0000     -10.301726      -280.3242 
  13   2.0000     -10.293857      -280.1101 
  14   2.0000     -10.288429      -279.9624 
  15   2.0000     -10.283856      -279.8379 
  16   2.0000      -1.125109       -30.6158 
  17   2.0000      -1.121306       -30.5123 
  18   2.0000      -1.082418       -29.4541 
  19   2.0000      -1.072836       -29.1933 
  20   2.0000      -0.996450       -27.1148 
  21   2.0000      -0.978469       -26.6255 
  22   2.0000      -0.949044       -25.8248 
  23   2.0000      -0.856082       -23.2952 
  24   2.0000      -0.849577       -23.1182 
  25   2.0000      -0.821634       -22.3578 
  26   2.0000      -0.732888       -19.9429 
  27   2.0000      -0.709738       -19.3129 
  28   2.0000      -0.689386       -18.7592 
  29   2.0000      -0.642555       -17.4848 
  30   2.0000      -0.640147       -17.4193 
  31   2.0000      -0.595405       -16.2018 
  32   2.0000      -0.593586       -16.1523 
  33   2.0000      -0.574358       -15.6291 
  34   2.0000      -0.559769       -15.2321 
  35   2.0000      -0.543347       -14.7852 
  36   2.0000      -0.538941       -14.6653 
  37   2.0000      -0.533503       -14.5174 
  38   2.0000      -0.527516       -14.3544 
  39   2.0000      -0.511241       -13.9116 
  40   2.0000      -0.496318       -13.5055 
  41   2.0000      -0.478571       -13.0226 
  42   2.0000      -0.473691       -12.8898 
  43   2.0000      -0.471202       -12.8220 
  44   2.0000      -0.469496       -12.7756 
  45   2.0000      -0.463627       -12.6159 
  46   2.0000      -0.449772       -12.2389 
  47   2.0000      -0.437177       -11.8962 
  48   2.0000      -0.414526       -11.2798 
  49   2.0000      -0.404308       -11.0018 
  50   2.0000      -0.396785       -10.7971 
  51   2.0000      -0.359634        -9.7861 
  52   2.0000      -0.337331        -9.1792 
  53   2.0000      -0.323820        -8.8116 
  54   2.0000      -0.319880        -8.7044 
  55   2.0000      -0.313196        -8.5225 
  56   2.0000      -0.307007        -8.3541 
  57   2.0000      -0.305706        -8.3187 
  58   2.0000      -0.289741        -7.8842 
  59   0.0000      -0.200651        -5.4600 
  60   0.0000      -0.118529        -3.2253 
  61   0.0000      -0.101029        -2.7491 
  62   0.0000      -0.090123        -2.4524 
  63   0.0000      -0.066232        -1.8023 
  64   0.0000      -0.031988        -0.8704 
  65   0.0000      -0.011614        -0.3160 
  66   0.0000       0.009835         0.2676 
  67   0.0000       0.026131         0.7110 
  68   0.0000       0.032680         0.8893 
  69   0.0000       0.039458         1.0737 
*Only the first 10 virtual orbitals were printed.

                    ********************************
                    * MULLIKEN POPULATION ANALYSIS *
                    ********************************

-----------------------
MULLIKEN ATOMIC CHARGES
-----------------------
   0 C :    0.036463
   1 H :    0.047680
   2 H :   -0.062239
   3 C :   -0.083383
   4 C :    0.065452
   5 O :   -0.375320
   6 O :   -0.439146
   7 O :   -0.512916
   8 C :    0.040538
   9 H :   -0.126660
  10 C :    0.031038
  11 H :   -0.072811
  12 C :   -0.085055
  13 C :    0.052414
  14 H :    0.017490
  15 C :   -0.039952
  16 H :    0.029929
  17 C :    0.328500
  18 H :   -0.046811
  19 O :   -0.319223
  20 H :    0.182197
  21 C :    0.117204
  22 O :   -0.362470
  23 O :   -0.422920
Sum of atomic charges:   -2.0000000

--------------------------------
MULLIKEN REDUCED ORBITAL CHARGES
--------------------------------
  0 C s       :     3.114962  s :     3.114962
      pz      :     0.861014  p :     2.825178
      px      :     0.985547
      py      :     0.978617
      dz2     :     0.005449  d :     0.023397
      dxz     :     0.002871
      dyz     :     0.007364
      dx2y2   :     0.004171
      dxy     :     0.003541

  1 H s       :     0.927795  s :     0.927795
      pz      :     0.009580  p :     0.024525
      px      :     0.004453
      py      :     0.010491

  2 H s       :     1.038170  s :     1.038170
      pz      :     0.013912  p :     0.024069
      px      :     0.005689
      py      :     0.004468

  3 C s       :     3.183536  s :     3.183536
      pz      :     0.999310  p :     2.819298
      px      :     0.909712
      py      :     0.910276
      dz2     :     0.020707  d :     0.080549
      dxz     :     0.007260
      dyz     :     0.022905
      dx2y2   :     0.014015
      dxy     :     0.015661

  4 C s       :     3.049153  s :     3.049153
      pz      :     0.956145  p :     2.747367
      px      :     0.873006
      py      :     0.918217
      dz2     :     0.032708  d :     0.138027
      dxz     :     0.018292
      dyz     :     0.030830
      dx2y2   :     0.030590
      dxy     :     0.025607

  5 O s       :     3.723220  s :     3.723220
      pz      :     1.630875  p :     4.637524
      px      :     1.550120
      py      :     1.456529
      dz2     :     0.002170  d :     0.014576
      dxz     :     0.002289
      dyz     :     0.004567
      dx2y2   :     0.002876
      dxy     :     0.002675

  6 O s       :     3.731384  s :     3.731384
      pz      :     1.749326  p :     4.694270
      px      :     1.466519
      py      :     1.478425
      dz2     :     0.001708  d :     0.013492
      dxz     :     0.001620
      dyz     :     0.002600
      dx2y2   :     0.003458
      dxy     :     0.004105

  7 O s       :     3.725069  s :     3.725069
      pz      :     1.676108  p :     4.775254
      px      :     1.549011
      py      :     1.550134
      dz2     :     0.001677  d :     0.012592
      dxz     :     0.001516
      dyz     :     0.003985
      dx2y2   :     0.003036
      dxy     :     0.002379

  8 C s       :     3.127704  s :     3.127704
      pz      :     0.975761  p :     2.795897
      px      :     0.928597
      py      :     0.891540
      dz2     :     0.004710  d :     0.035861
      dxz     :     0.006207
      dyz     :     0.011125
      dx2y2   :     0.007708
      dxy     :     0.006111

  9 H s       :     1.105034  s :     1.105034
      pz      :     0.006799  p :     0.021626
      px      :     0.004499
      py      :     0.010327

 10 C s       :     3.188876  s :     3.188876
      pz      :     0.839707  p :     2.746137
      px      :     0.957774
      py      :     0.948656
      dz2     :     0.006401  d :     0.033948
      dxz     :     0.004538
      dyz     :     0.010253
      dx2y2   :     0.007256
      dxy     :     0.005500

 11 H s       :     1.049197  s :     1.049197
      pz      :     0.012062  p :     0.023614
      px      :     0.007405
      py      :     0.004147

 12 C s       :     3.243719  s :     3.243719
      pz      :     0.927716  p :     2.800180
      px      :     0.845396
      py      :     1.027067
      dz2     :     0.008109  d :     0.041156
      dxz     :     0.006613
      dyz     :     0.010963
      dx2y2   :     0.008325
      dxy     :     0.007146

 13 C s       :     3.211647  s :     3.211647
      pz      :     0.947617  p :     2.702312
      px      :     0.923326
      py      :     0.831369
      dz2     :     0.005582  d :     0.033627
      dxz     :     0.005243
      dyz     :     0.008791
      dx2y2   :     0.007469
      dxy     :     0.006543

 14 H s       :     0.958877  s :     0.958877
      pz      :     0.005925  p :     0.023633
      px      :     0.004135
      py      :     0.013573

 15 C s       :     3.220478  s :     3.220478
      pz      :     0.887246  p :     2.786035
      px      :     0.954411
      py      :     0.944378
      dz2     :     0.004791  d :     0.033439
      dxz     :     0.004284
      dyz     :     0.008993
      dx2y2   :     0.008525
      dxy     :     0.006847

 16 H s       :     0.947173  s :     0.947173
      pz      :     0.010792  p :     0.022898
      px      :     0.008979
      py      :     0.003127

 17 C s       :     2.813537  s :     2.813537
      pz      :     0.957812  p :     2.787743
      px      :     0.779547
      py      :     1.050384
      dz2     :     0.009430  d :     0.070221
      dxz     :     0.018741
      dyz     :     0.011416
      dx2y2   :     0.015076
      dxy     :     0.015558

 18 H s       :     1.023165  s :     1.023165
      pz      :     0.011052  p :     0.023646
      px      :     0.006795
      py      :     0.005799

 19 O s       :     3.742236  s :     3.742236
      pz      :     1.830325  p :     4.564846
      px      :     1.504475
      py      :     1.230045
      dz2     :     0.001746  d :     0.012141
      dxz     :     0.002411
      dyz     :     0.001056
      dx2y2   :     0.004981
      dxy     :     0.001948

 20 H s       :     0.751273  s :     0.751273
      pz      :     0.018110  p :     0.066530
      px      :     0.013741
      py      :     0.034679

 21 C s       :     3.004128  s :     3.004128
      pz      :     0.913173  p :     2.739047
      px      :     0.894744
      py      :     0.931130
      dz2     :     0.033463  d :     0.139621
      dxz     :     0.020883
      dyz     :     0.035383
      dx2y2   :     0.026107
      dxy     :     0.023785

 22 O s       :     3.732762  s :     3.732762
      pz      :     1.582976  p :     4.615199
      px      :     1.546677
      py      :     1.485546
      dz2     :     0.002018  d :     0.014509
      dxz     :     0.001111
      dyz     :     0.004526
      dx2y2   :     0.003207
      dxy     :     0.003647

 23 O s       :     3.730334  s :     3.730334
      pz      :     1.427311  p :     4.678535
      px      :     1.468858
      py      :     1.782367
      dz2     :     0.004403  d :     0.014050
      dxz     :     0.005064
      dyz     :     0.001861
      dx2y2   :     0.001689
      dxy     :     0.001033



                     *******************************
                     * LOEWDIN POPULATION ANALYSIS *
                     *******************************

----------------------
LOEWDIN ATOMIC CHARGES
----------------------
   0 C :   -0.070266
   1 H :    0.036097
   2 H :   -0.010496
   3 C :   -0.074201
   4 C :   -0.071363
   5 O :   -0.349348
   6 O :   -0.404158
   7 O :   -0.386828
   8 C :    0.036419
   9 H :   -0.028412
  10 C :   -0.057594
  11 H :    0.001367
  12 C :    0.043166
  13 C :   -0.012316
  14 H :    0.043356
  15 C :    0.015037
  16 H :    0.043616
  17 C :    0.050077
  18 H :    0.004134
  19 O :   -0.140371
  20 H :    0.089401
  21 C :   -0.035462
  22 O :   -0.335042
  23 O :   -0.386814

-------------------------------
LOEWDIN REDUCED ORBITAL CHARGES
-------------------------------
  0 C s       :     2.911134  s :     2.911134
      pz      :     1.036374  p :     3.095421
      px      :     0.984000
      py      :     1.075047
      dz2     :     0.015443  d :     0.063712
      dxz     :     0.007352
      dyz     :     0.021533
      dx2y2   :     0.011299
      dxy     :     0.008085

  1 H s       :     0.888850  s :     0.888850
      pz      :     0.027795  p :     0.075053
      px      :     0.015691
      py      :     0.031567

  2 H s       :     0.937128  s :     0.937128
      pz      :     0.041491  p :     0.073367
      px      :     0.018730
      py      :     0.013147

  3 C s       :     2.904855  s :     2.904855
      pz      :     1.044400  p :     2.970788
      px      :     0.911288
      py      :     1.015100
      dz2     :     0.053529  d :     0.198558
      dxz     :     0.015577
      dyz     :     0.057937
      dx2y2   :     0.034752
      dxy     :     0.036763

  4 C s       :     2.870802  s :     2.870802
      pz      :     1.007535  p :     2.879599
      px      :     0.900858
      py      :     0.971206
      dz2     :     0.080692  d :     0.320963
      dxz     :     0.041111
      dyz     :     0.071994
      dx2y2   :     0.064045
      dxy     :     0.063120

  5 O s       :     3.571811  s :     3.571811
      pz      :     1.664536  p :     4.751702
      px      :     1.559924
      py      :     1.527243
      dz2     :     0.003303  d :     0.025834
      dxz     :     0.003583
      dyz     :     0.009492
      dx2y2   :     0.004611
      dxy     :     0.004846

  6 O s       :     3.569295  s :     3.569295
      pz      :     1.755572  p :     4.810366
      px      :     1.512811
      py      :     1.541982
      dz2     :     0.003035  d :     0.024497
      dxz     :     0.002959
      dyz     :     0.004871
      dx2y2   :     0.004943
      dxy     :     0.008689

  7 O s       :     3.553948  s :     3.553948
      pz      :     1.682359  p :     4.809495
      px      :     1.539050
      py      :     1.588086
      dz2     :     0.003190  d :     0.023386
      dxz     :     0.002698
      dyz     :     0.008139
      dx2y2   :     0.005486
      dxy     :     0.003873

  8 C s       :     2.909805  s :     2.909805
      pz      :     0.988604  p :     2.964369
      px      :     0.920910
      py      :     1.054856
      dz2     :     0.011082  d :     0.089408
      dxz     :     0.014980
      dyz     :     0.028883
      dx2y2   :     0.020259
      dxy     :     0.014204

  9 H s       :     0.961085  s :     0.961085
      pz      :     0.022094  p :     0.067328
      px      :     0.014854
      py      :     0.030380

 10 C s       :     2.861535  s :     2.861535
      pz      :     1.035269  p :     3.103562
      px      :     1.008896
      py      :     1.059397
      dz2     :     0.017133  d :     0.092496
      dxz     :     0.010907
      dyz     :     0.029150
      dx2y2   :     0.021822
      dxy     :     0.013483

 11 H s       :     0.926543  s :     0.926543
      pz      :     0.034989  p :     0.072090
      px      :     0.023720
      py      :     0.013381

 12 C s       :     2.920377  s :     2.920377
      pz      :     0.995927  p :     2.934492
      px      :     0.855192
      py      :     1.083373
      dz2     :     0.018848  d :     0.101965
      dxz     :     0.016433
      dyz     :     0.029554
      dx2y2   :     0.021618
      dxy     :     0.015511

 13 C s       :     2.866915  s :     2.866915
      pz      :     1.001165  p :     3.056057
      px      :     0.982969
      py      :     1.071923
      dz2     :     0.014702  d :     0.089344
      dxz     :     0.014296
      dyz     :     0.023187
      dx2y2   :     0.020171
      dxy     :     0.016989

 14 H s       :     0.884385  s :     0.884385
      pz      :     0.019075  p :     0.072258
      px      :     0.013292
      py      :     0.039891

 15 C s       :     2.883061  s :     2.883061
      pz      :     0.988757  p :     3.016486
      px      :     0.979674
      py      :     1.048054
      dz2     :     0.011591  d :     0.085416
      dxz     :     0.010597
      dyz     :     0.023132
      dx2y2   :     0.022582
      dxy     :     0.017515

 16 H s       :     0.887126  s :     0.887126
      pz      :     0.032294  p :     0.069258
      px      :     0.026305
      py      :     0.010659

 17 C s       :     2.834284  s :     2.834284
      pz      :     1.024821  p :     2.954420
      px      :     0.899392
      py      :     1.030207
      dz2     :     0.019319  d :     0.161220
      dxz     :     0.047266
      dyz     :     0.027748
      dx2y2   :     0.034222
      dxy     :     0.032664

 18 H s       :     0.920420  s :     0.920420
      pz      :     0.033445  p :     0.075446
      px      :     0.021940
      py      :     0.020061

 19 O s       :     3.457862  s :     3.457862
      pz      :     1.809744  p :     4.659565
      px      :     1.533995
      py      :     1.315827
      dz2     :     0.003190  d :     0.022944
      dxz     :     0.003513
      dyz     :     0.001669
      dx2y2   :     0.010698
      dxy     :     0.003874

 20 H s       :     0.735027  s :     0.735027
      pz      :     0.049161  p :     0.175572
      px      :     0.036749
      py      :     0.089662

 21 C s       :     2.849873  s :     2.849873
      pz      :     0.959017  p :     2.864537
      px      :     0.910703
      py      :     0.994817
      dz2     :     0.072256  d :     0.321052
      dxz     :     0.049538
      dyz     :     0.085300
      dx2y2   :     0.059830
      dxy     :     0.054127

 22 O s       :     3.574823  s :     3.574823
      pz      :     1.617085  p :     4.734613
      px      :     1.558126
      py      :     1.559402
      dz2     :     0.003054  d :     0.025606
      dxz     :     0.002105
      dyz     :     0.008610
      dx2y2   :     0.006047
      dxy     :     0.005791

 23 O s       :     3.569483  s :     3.569483
      pz      :     1.493621  p :     4.792238
      px      :     1.510619
      py      :     1.787998
      dz2     :     0.007001  d :     0.025093
      dxz     :     0.010728
      dyz     :     0.002980
      dx2y2   :     0.002724
      dxy     :     0.001659



                      *****************************
                      * MAYER POPULATION ANALYSIS *
                      *****************************

  NA   - Mulliken gross atomic population
  ZA   - Total nuclear charge
  QA   - Mulliken gross atomic charge
  VA   - Mayer's total valence
  BVA  - Mayer's bonded valence
  FA   - Mayer's free valence

  ATOM       NA         ZA         QA         VA         BVA        FA
  0 C      5.9635     6.0000     0.0365     3.8330     3.8330    -0.0000
  1 H      0.9523     1.0000     0.0477     1.0236     1.0236    -0.0000
  2 H      1.0622     1.0000    -0.0622     1.0343     1.0343    -0.0000
  3 C      6.0834     6.0000    -0.0834     4.0191     4.0191    -0.0000
  4 C      5.9345     6.0000     0.0655     4.4905     4.4905    -0.0000
  5 O      8.3753     8.0000    -0.3753     2.1192     2.1192    -0.0000
  6 O      8.4391     8.0000    -0.4391     2.0432     2.0432    -0.0000
  7 O      8.5129     8.0000    -0.5129     1.9599     1.9599    -0.0000
  8 C      5.9595     6.0000     0.0405     3.8468     3.8468     0.0000
  9 H      1.1267     1.0000    -0.1267     0.9807     0.9807     0.0000
 10 C      5.9690     6.0000     0.0310     3.8808     3.8808    -0.0000
 11 H      1.0728     1.0000    -0.0728     1.0412     1.0412    -0.0000
 12 C      6.0851     6.0000    -0.0851     3.6338     3.6338     0.0000
 13 C      5.9476     6.0000     0.0524     3.8582     3.8582    -0.0000
 14 H      0.9825     1.0000     0.0175     1.0300     1.0300    -0.0000
 15 C      6.0400     6.0000    -0.0400     3.9222     3.9222     0.0000
 16 H      0.9701     1.0000     0.0299     0.9955     0.9955    -0.0000
 17 C      5.6715     6.0000     0.3285     3.8326     3.8326     0.0000
 18 H      1.0468     1.0000    -0.0468     1.0911     1.0911     0.0000
 19 O      8.3192     8.0000    -0.3192     2.0602     2.0602     0.0000
 20 H      0.8178     1.0000     0.1822     1.0044     1.0044    -0.0000
 21 C      5.8828     6.0000     0.1172     4.5208     4.5208    -0.0000
 22 O      8.3625     8.0000    -0.3625     2.1417     2.1417     0.0000
 23 O      8.4229     8.0000    -0.4229     2.0659     2.0659     0.0000

  Mayer bond orders larger than 0.100000
B(  0-C ,  1-H ) :   0.9306 B(  0-C ,  2-H ) :   0.9162 B(  0-C ,  3-C ) :   1.5324 
B(  0-C , 12-C ) :   0.2553 B(  3-C ,  4-C ) :   0.8207 B(  3-C ,  7-O ) :   1.5037 
B(  4-C ,  5-O ) :   1.8995 B(  4-C ,  6-O ) :   1.7603 B(  5-O ,  6-O ) :   0.1259 
B(  6-O , 18-H ) :   0.1186 B(  7-O ,  8-C ) :   0.2514 B(  8-C ,  9-H ) :   0.9158 
B(  8-C , 10-C ) :   1.4688 B(  8-C , 17-C ) :   0.9616 B( 10-C , 11-H ) :   0.9560 
B( 10-C , 12-C ) :   1.3355 B( 12-C , 13-C ) :   1.0861 B( 12-C , 21-C ) :   0.8073 
B( 13-C , 14-H ) :   0.9844 B( 13-C , 15-C ) :   1.7250 B( 15-C , 16-H ) :   0.9704 
B( 15-C , 17-C ) :   0.9903 B( 17-C , 18-H ) :   0.8337 B( 17-C , 19-O ) :   1.0405 
B( 19-O , 20-H ) :   0.9640 B( 21-C , 22-O ) :   1.9115 B( 21-C , 23-O ) :   1.8070 
B( 22-O , 23-O ) :   0.1293 

-------
TIMINGS
-------

Total SCF time: 0 days 0 hours 0 min 47 sec 

Total time                  ....      47.778 sec
Sum of individual times     ....      46.940 sec  ( 98.2%)

SCF preparation             ....       1.610 sec  (  3.4%)
Fock matrix formation       ....      42.352 sec  ( 88.6%)
  Startup                   ....       0.257 sec  (  0.6% of F)
  Split-RI-J                ....       3.601 sec  (  8.5% of F)
  Chain of spheres X        ....      24.936 sec  ( 58.9% of F)
  XC integration            ....       7.645 sec  ( 18.1% of F)
    XC Preparation          ....       0.000 sec  (  0.0% of XC)
    Basis function eval.    ....       1.971 sec  ( 25.8% of XC)
    Density eval.           ....       1.107 sec  ( 14.5% of XC)
    XC-Functional eval.     ....       0.310 sec  (  4.1% of XC)
    XC-Potential eval.      ....       1.187 sec  ( 15.5% of XC)
  CPCM terms                ....       4.369 sec  ( 10.3% of F)
Diagonalization             ....       0.000 sec  (  0.0%)
Density matrix formation    ....       0.645 sec  (  1.4%)
Total Energy calculation    ....       0.311 sec  (  0.7%)
Population analysis         ....       0.142 sec  (  0.3%)
Orbital Transformation      ....       0.204 sec  (  0.4%)
Orbital Orthonormalization  ....       0.000 sec  (  0.0%)
DIIS solution               ....       1.054 sec  (  2.2%)
SOSCF solution              ....       0.623 sec  (  1.3%)
Finished LeanSCF after  48.1 sec

Maximum memory used throughout the entire LEANSCF-calculation: 31.1 MB


-------------------------------------------------------------------------------
                          DFT DISPERSION CORRECTION                            
                                                                               
                              DFTD3 V3.1  Rev 1                                
                          USING Becke-Johnson damping                          
-------------------------------------------------------------------------------
The B3LYP functional is recognized
Active option DFTDOPT                   ...         4   

molecular C6(AA) [au] = 7107.114447 


            DFT-D V3
 parameters
 s6 scaling factor         :     1.0000 
 a1 scaling factor         :     0.3981 
 s8 scaling factor         :     1.9889 
 a2 scaling factor         :     4.4211 
 ad hoc parameters k1-k3   :    16.0000     1.3333    -4.0000 

 Edisp/kcal,au: -35.335923653620  -0.056311372728 
 E6   /kcal   : -16.493677098 
 E8   /kcal   : -18.842246555 
 % E8         :  53.323203717 

-------------------------   ----------------
Dispersion correction           -0.056311373
-------------------------   ----------------


-------------------------   --------------------
FINAL SINGLE POINT ENERGY      -836.712220062341
-------------------------   --------------------



           ************************************************************
           *        Program running with 8 parallel MPI-processes     *
           *              working on a common directory               *
           ************************************************************

------------------------------------------------------------------------------
                              ORCA PROPERTY CALCULATIONS
------------------------------------------------------------------------------

GBWName                                 ... polf_TS_pc.gbw
Number of atoms                         ...     24
Number of basis functions               ...    264
Max core memory                         ...   3000 MB

Electric properties:
Dipole moment                           ... YES
Quadrupole moment                       ...  NO
Static polarizability (Dipole/Dipole)   ...  NO
Static polarizability (Dipole/Quad.)    ...  NO
Static polarizability (Quad./Quad.)     ...  NO
Static polarizability (Velocity)        ...  NO

Atomic electric properties:
Dipole moment                           ...  NO
Quadrupole moment                       ...  NO
Static polarizability                   ...  NO

Choice of electric origin               ... Center of mass
Position of electric origin             ...    40.889474    76.450785   107.817479

General magnetic properties:
Magnetizability                         ...  NO

EPR properties:
g-Tensor (aka g-matrix)                 ...  NO
Zero-Field splitting spin-orbit         ...  NO
Zero-field splitting spin-spin          ...  NO
Hyperfine couplings                     ...  NO (   0 nuclei)
Quadrupole couplings                    ...  NO (   0 nuclei)
Contact density                         ...  NO (   0 nuclei)

NMR properties:
Chemical shifts                         ...  NO (   0 nuclei)
Spin-rotation constants                 ...  NO (   0 nuclei)
Spin-spin couplings                     ...  NO (   0 nuclei,    0 pairs)

Choice of magnetic origin               ... GIAO
Position of magnetic origin             ...     0.000000     0.000000     0.000000

Properties with geometric perturbations:
SCF Hessian                             ...  NO
IR spectrum                             ...  NO
VCD spectrum                            ...  NO
X-ray spectroscopy properties:
SCF XES/XAS/RIXS spectra                ...  NO


-------------
DIPOLE MOMENT
-------------

Method             : SCF
Type of density    : Electron Density
Multiplicity       :   1
Irrep              :   0
Energy             :  -836.6559086896130566 Eh
Relativity type    : 
Basis              : AO
                                X                 Y                 Z
Electronic contribution:      0.643520360       2.696638646      -0.890165714
Nuclear contribution   :      2.996186626      -4.198849302       1.920793271
                        -----------------------------------------
Total Dipole Moment    :      3.639706986      -1.502210655       1.030627557
                        -----------------------------------------
Magnitude (a.u.)       :      4.070171613
Magnitude (Debye)      :     10.345554065



--------------------
Rotational spectrum 
--------------------
 
Rotational constants in cm-1:             0.022313             0.017053             0.012774 
Rotational constants in MHz :           668.940631           511.239954           382.940473 

Dipole components along the rotational axes: 
x,y,z [a.u.] :    -0.665825     3.879153    -1.036891 
x,y,z [Debye]:    -1.692394     9.860024    -2.635567 

 

Dipole moment calculation done in   0.0 sec 

Maximum memory used throughout the entire PROP-calculation: 13.9 MB

--------------------------------
SUGGESTED CITATIONS FOR THIS RUN
--------------------------------

Below you find a list of papers that are relevant to this ORCA run
We neither can nor want to force you to cite these papers, but we appreciate if you do
You receive ORCA, which is the product of decades of hard work by many enthusiastic individuals, for free
The only thing we kindly ask in return is that you cite our papers,
We deeply appreciate it, if you show your appreciation for ORCA by not just citing the generic ORCA reference.

Please note that relegating all ORCA citations to the supporting information does *not* help us.
SI sections are not indexed - citations you put there will not count into any citation statistics
But we need these citations in order to attract the funding resources that allow us to do what we are doing

Therefore, if you are a happy ORCA user, please consider citing a few of the papers listed below in the main body of your paper

In addition to the list printed below, the program has created the file polf_TS_pc.bibtex that contains the list in bibtex format
You can import this file easily into all common literature databanks and citation aid programs


List of essential papers. We consider these as the minimum necessary citations

  1. Neese,F.
     Software update: the ORCA program system, version 5.0
     WIRES Comput. Molec. Sci., 2022 12(1)e1606
     doi.org/10.1002/wcms.1606

List of papers to cite with high priority. The work reported in these papers was absolutely
necessary for this run to complete.
Our perspective: the developers of density functionals and basis sets usually get cited in chemistry papers
Good! But without the algorithms to do something with them, the functionals or basis sets would not do anything.
Hence, in our opinion, the algorithm design and method developments papers are equally worthy of getting cited

  1. Neese,F.
     An improvement of the resolution of the identity approximation for the formation of the Coulomb matrix
     J. Comp. Chem., 2003 24(14)1740-1747
     doi.org/10.1002/jcc.10318
  2. Neese,F.; Wennmohs,F.; Hansen,A.; Becker,U.
     Efficient, approximate and parallel Hartree-Fock and hybrid DFT calculations. A 'chain-of-spheres' algorithm for the Hartree-Fock exchange
     Chem. Phys., 2009 356(1-3)98-109
     doi.org/10.1016/j.chemphys.2008.10.036
  3. Garcia-Rates,M.; Neese,F.
     Effect of the Solute Cavity on the Solvation Energy and its Derivatives within the Framework of the Gaussian Charge Scheme
     J. Comput. Chem., 2020 41 922-939
     doi.org/10.1002/jcc.26139
  4. Helmich-Paris,B.; de Souza,B.; Neese,F.; Izsák,R.
     An improved chain of spheres for exchange algorithm
     J. Chem. Phys., 2021 155 104109
     doi.org/doi: 10.1063/5.0058766.
  5. Neese,F.
     The SHARK Integral Generation and Digestion System
     J. Comp. Chem., 2022  1-16
     doi.org/10.1002/jcc.26942
  6. Grimme,S.; Antony,J.; Ehrlich,S.; Krieg,H.
     A consistent and accurate ab initio parametrization of density functional dispersion correction (DFT-D) for the 94 elements H-Pu
     J. Chem. Phys., 2010 132 154104
     doi.org/10.1063/1.3382344
  7. Grimme,S.; Ehrlich,S.; Goerigk,L.
     Effect of the damping function in dispersion corrected density functional theory
     J. Comput. Chem., 2011 32(7)1456-1465
     doi.org/10.1002/jcc.21759

List of suggested additional citations. These are papers that are important in the 'surrounding' of 
of this run, or papers that preceded the highly important papers. If you like your results we are grateful for a citation.

  1. Izsak,R.; Neese,F.
     An overlap fitted chain of spheres exchange method
     J. Chem. Phys., 2011 135 144105
     doi.org/10.1063/1.3646921
  2. Izsak,R.; Hansen,A.; Neese,F.
     The resolution of identity and chain of spheres approximations for the LPNO-CCSD singles Fock term
     Molec. Phys., 2012 110 2413-2417
     doi.org/10.1080/00268976.2012.687466
  3. Neese,F.
     The ORCA program system
     WIRES Comput. Molec. Sci., 2012 2(1)73-78
     doi.org/10.1002/wcms.81
  4. Izsak,R.; Neese,F.; Klopper,W.
     Robust fitting techniques in the chain of spheres approximation to the Fock exchange: The role of the complementary space
     J. Chem. Phys., 2013 139 
     doi.org/10.1063/1.4819264
  5. Neese,F.
     Software update: the ORCA program system, version 4.0
     WIRES Comput. Molec. Sci., 2018 8(1)1-6
     doi.org/10.1002/wcms.1327
  6. Neese,F.; Wennmohs,F.; Becker,U.; Riplinger,C.
     The ORCA quantum chemistry program package
     J. Chem. Phys., 2020 152 Art. No. L224108
     doi.org/10.1063/5.0004608

List of optional additional citations

  1. Neese,F.
     Approximate second-order SCF convergence for spin unrestricted wavefunctions
     Chem. Phys. Lett., 2000 325(1-3)93-98
     doi.org/10.1016/s0009-2614(00)00662-x

Timings for individual modules:

Sum of individual times          ...       60.666 sec (=   1.011 min)
Startup calculation              ...        6.379 sec (=   0.106 min)  10.5 %
SCF iterations                   ...       52.016 sec (=   0.867 min)  85.7 %
Property calculations            ...        2.271 sec (=   0.038 min)   3.7 %
                             ****ORCA TERMINATED NORMALLY****
TOTAL RUN TIME: 0 days 0 hours 1 minutes 10 seconds 457 msec
