
                                 *****************
                                 * O   R   C   A *
                                 *****************

                                            #,                                       
                                            ###                                      
                                            ####                                     
                                            #####                                    
                                            ######                                   
                                           ########,                                 
                                     ,,################,,,,,                         
                               ,,#################################,,                 
                          ,,##########################################,,             
                       ,#########################################, ''#####,          
                    ,#############################################,,   '####,        
                  ,##################################################,,,,####,       
                ,###########''''           ''''###############################       
              ,#####''   ,,,,##########,,,,          '''####'''          '####       
            ,##' ,,,,###########################,,,                        '##       
           ' ,,###''''                  '''############,,,                           
         ,,##''                                '''############,,,,        ,,,,,,###''
      ,#''                                            '''#######################'''  
     '                                                          ''''####''''         
             ,#######,   #######,   ,#######,      ##                                
            ,#'     '#,  ##    ##  ,#'     '#,    #''#        ,####,   ,####,        
            ##       ##  ##   ,#'  ##            #'  '#       #'       #'  '#        
            ##       ##  #######   ##           ,######,      #####,   #    #        
            '#,     ,#'  ##    ##  '#,     ,#' ,#      #,     #,   #   #,  ,#        
             '#######'   ##     ##  '#######'  #'      '#     '####' # '####'        



                #########################################################
                #                        -***-                          #
                #          Department of theory and spectroscopy        #
                #                                                       #
                #                      Frank Neese                      #
                #                                                       #
                #     Directorship, Architecture, Infrastructure        #
                #                    SHARK, DRIVERS                     #
                #        Core code/Algorithms in most modules           #
                #                                                       #
                #        Max Planck Institute fuer Kohlenforschung      #
                #                Kaiser Wilhelm Platz 1                 #
                #                 D-45470 Muelheim/Ruhr                 #
                #                      Germany                          #
                #                                                       #
                #                  All rights reserved                  #
                #                        -***-                          #
                #########################################################


                         Program Version 6.0.1  -  RELEASE   -


 With contributions from (in alphabetic order):
[Max-Planck-Institut fuer Kohlenforschung]                               
  Daniel Aravena         : Magnetic Suceptibility                        
  Michael Atanasov       : Ab Initio Ligand Field Theory (pilot matlab implementation)
  Alexander A. Auer      : GIAO ZORA, VPT2 properties, NMR spectrum      
  Ute Becker             : All parallelization in ORCA, NUMFREQ, NUMCALC 
  Giovanni Bistoni       : ED, misc. LED, open-shell LED, HFLD           
  Martin Brehm           : Molecular dynamics                            
  Dmytro Bykov           : pre 5.0 version of the SCF Hessian            
  Marcos Casanova-Páez   : Triplet and SCS-CIS(D). UHF-(DLPNO)-IP/EA/STEOM-CCSD. UHF-CVS-IP/STEOM-CCSD   
  Vijay G. Chilkuri      : MRCI spin determinant printing, contributions to CSF-ICE 
  Pauline Colinet        : FMM embedding                                 
  Dipayan Datta          : RHF DLPNO-CCSD density                        
  Achintya Kumar Dutta   : EOM-CC, STEOM-CC                              
  Nicolas Foglia         : Exact transition moments, OPA infrastructure, MCD improvements    
  Dmitry Ganyushin       : Spin-Orbit,Spin-Spin,Magnetic field MRCI      
  Miquel Garcia-Rates    : C-PCM and meta-GGA Hessian, CCSD/C-PCM, Gaussian charge scheme 
  Tiago L. C. Gouveia    : GS-ROHF, GS-ROCIS                             
  Yang Guo               : DLPNO-NEVPT2, F12-NEVPT2, CIM, IAO-localization        
  Andreas Hansen         : Spin unrestricted coupled pair/coupled cluster methods 
  Ingolf Harden          : AUTO-CI MPn and infrastructure                
  Benjamin Helmich-Paris : MC-RPA, TRAH-(SCF,CASSCF), AVAS, COSX integrals, SCF dyn. polar. 
  Lee Huntington         : MR-EOM, pCC                                   
  Robert Izsak           : Overlap fitted RIJCOSX, COSX-SCS-MP3, EOM     
  Riya Kayal             : Wick's Theorem for AUTO-CI, AUTO-CI UHF-CCSDT 
  Emily Kempfer          : AUTO-CI, RHF CISDT and CCSDT                  
  Christian Kollmar      : KDIIS, OOCD, Brueckner-CCSD(T), CCSD density, CASPT2, CASPT2-K, improved NEVPT2 
  Axel Koslowski         : Symmetry handling                             
  Simone Kossmann        : meta-GGA functionals, TD-DFT gradient, OOMP2, (MP2 Hessian; deprecated post 5.0) 
  Lucas Lang             : DCDCAS                                        
  Marvin Lechner         : AUTO-CI (C++ implementation), FIC-MRCC        
  Spencer Leger          : CASSCF response                               
  Dagmar Lenk            : GEPOL surface, SMD, ORCA-2-JSON               
  Dimitrios Liakos       : Extrapolation schemes; Compound Job, initial MDCI parallelization 
  Dimitrios Manganas     : Further ROCIS development; embedding schemes. LFT, Crystal Embedding 
  Dimitrios Pantazis     : SARC Basis sets                               
  Anastasios Papadopoulos: AUTO-CI, single reference methods and gradients 
  Taras Petrenko         : pre 6.0 DFT Hessian and TD-DFT gradient, (ASA, deprecated), ECA, 1-Electron XAS/XES, NRVS 
  Peter Pinski           : DLPNO-MP2, DLPNO-MP2 Gradient                 
  Christoph Reimann      : Effective Core Potentials                     
  Marius Retegan         : Local ZFS, SOC                                
  Christoph Riplinger    : Optimizer, TS searches, QM/MM, DLPNO-CCSD(T), (RO)-DLPNO pert. Triples 
  Michael Roemelt        : Original ROCIS implementation                 
  Masaaki Saitow         : Open-shell DLPNO-CCSD energy and density      
  Barbara Sandhoefer     : DKH picture change effects                    
  Kantharuban Sivalingam : CASSCF convergence/infrastructure, NEVPT2 and variants, FIC-MRCI 
  Bernardo de Souza      : ESD, SOC TD-DFT                               
  Georgi L. Stoychev     : AutoAux, RI-MP2 NMR, DLPNO-MP2 response, X2C  
  Van Anh Tran           : RI-MP2 g-tensors                              
  Willem Van den Heuvel  : Paramagnetic NMR                              
  Zikuan Wang            : NOTCH, Electric field optimization            
  Frank Wennmohs         : Technical directorship and infrastructure     
  Hang Xu                : AUTO-CI-Response properties                   
                                                                         
[FACCTs GmbH]                                                            
  Markus Bursch, Miquel Garcia-Rates, Christoph Riplinger, Bernardo de Souza, Georgi L. Stoychev 
                                                                 
  APM, Basis sets (HGBS, AHGBS, def-TZVP (Ac-Lr), def2-XVPD (La-Lu)), CI-OPT, improved COSX, DLPNO-Multilevel,           
  DOCKER, DRACO, updates on ESD, GOAT, IRC, LR-CPCM, MBIS, meta-GGA TD-DFT gradient, ML-optimized integration grids, 
  MM, NACMEs, nearIR, NEB, NEB-TS, NL-DFT gradient (VV10), 2- and 3-layer-ONIOM, interface openCOSMO-RS, QMMM,   
  Crystal-QMMM, SF, symmetry and pop. for TD-DFT, r2SCAN hybrids, SOLVATOR                                   
                                                                         
[Other institutions]                                                     
  V. Asgeirsson          : NEB                                           
  Christoph Bannwarth    : sTDA-DFT, sTD-DFT, PBEh-3c, B97-3c, D3        
  Sebastian Ehlert       : rSCAN, r2SCAN, r2SCAN-3c, D4, dhf basis sets  
  Marvin Friede          : D4 for Fr, Ra, Ac-Lr                          
  Lars Goerigk           : TD-DFT with DH, B97 family of functionals     
  Stefan Grimme          : VdW corrections, initial TS optimization, DFT functionals, gCP, sTDA/sTD-DF 
  Waldemar Hujo          : DFT-NL                                        
  H. Jonsson             : NEB                                           
  Holger Kruse           : gCP                                           
  Marcel Mueller         : wB97X-3c, vDZP basis set                      
  Hagen Neugebauer       : wr2SCAN                                       
  Tobias Risthaus        : range-separated hybrid DFT                    
  Lukas Wittmann         : regularized MP2, r2SCAN double-hybrids, wr2SCAN        
                                                                         
We gratefully acknowledge several colleagues who have allowed us to      
interface, adapt or use parts of their codes:                            
  Ed Valeev, F. Pavosevic, A. Kumar             : LibInt (2-el integral package), F12 methods 
  Garnet Chan, S. Sharma, J. Yang, R. Olivares  : DMRG                   
  Ulf Ekstrom                                   : XCFun DFT Library      
  Mihaly Kallay                                 : mrcc  (arbitrary order and MRCC methods)
  Frank Weinhold                                : gennbo (NPA and NBO analysis)           
  Simon Mueller                                 : openCOSMO-RS                            
  Christopher J. Cramer and Donald G. Truhlar   : smd solvation model                     
  S Lehtola, MJT Oliveira, MAL Marques          : LibXC Library                           
  Liviu Ungur et al                             : ANISO software                          


 Your calculation uses the libint2 library for the computation of 2-el integrals
 For citations please refer to: http://libint.valeyev.net

 Your ORCA version has been built with support for libXC version: 6.2.2
 For citations please refer to: https://libxc.gitlab.io

 This ORCA versions uses:
   CBLAS   interface :  Fast vector & matrix operations
   LAPACKE interface :  Fast linear algebra routines
   SCALAPACK package :  Parallel linear algebra routines
   Shared memory     :  Shared parallel matrices
   BLAS/LAPACK       :  OpenBLAS 0.3.27  USE64BITINT DYNAMIC_ARCH NO_AFFINITY Bulldozer SINGLE_THREADED
        Core in use  :  Bulldozer
   Copyright (c) 2011-2014, The OpenBLAS Project


NOTE: MaxCore=3000 MB was set to SCF,MP2,MDCI,CIPSI,MRCI and CIS
      => If you want to overwrite this, your respective input block should be placed after the MaxCore statement
Your calculation utilizes the atom-pairwise dispersion correction
with the Becke-Johnson damping scheme (D3BJ)


================================================================================

----- Orbital basis set information -----
Your calculation utilizes the basis: def2-SVP
   F. Weigend and R. Ahlrichs, Phys. Chem. Chem. Phys. 7, 3297 (2005).

----- AuxJ basis set information -----
Your calculation utilizes the auxiliary basis: def2/J
   F. Weigend, Phys. Chem. Chem. Phys. 8, 1057 (2006).

================================================================================
                                        WARNINGS
                       Please study these warnings very carefully!
================================================================================

WARNING: Old DensityContainer found on disk!
         Will remove this file - 
         If you want to keep old densities, please start your calculation with a different basename. 


WARNING: The chosen methods will break translational/rotational symmetry
  ===> : Will NOT project out the translational and rotational degrees of freedom
         of the Hessians, in case Hessians are calculated!

WARNING: The chosen methods will break translational symmetry
  ===> : Will NOT exploit translational invariance of the Hessians,
         in case Hessians are calculated!

WARNING: The chosen methods will break translational symmetry
  ===> : Will NOT make the numerical gradients translationally invariant,
         in case numerical gradients are calculated!

================================================================================
                                       INPUT FILE
================================================================================
NAME = polf_R_pc.inp
|  1> ! B3LYP D3BJ def2-SVP def2/J RIJCOSX CPCM KeepDens SlowConv
|  2> %maxcore 3000
|  3> %pal nprocs 8 end
|  4> %cpcm epsilon 4.0 end
|  5> %scf
|  6>   MaxIter 500
|  7>   DIISMaxEq 15
|  8>   directresetfreq 1
|  9>   SOSCFStart 0.002
| 10> end
| 11> %pointcharges "design_K2_free.pc"
| 12> * xyz -2 1
| 13> C     19.37411384    40.98301379    56.79247363
| 14> H     18.98738970    41.70301481    56.06860183
| 15> H     19.11637252    41.08805412    57.84692708
| 16> C     20.13023466    39.96813308    56.35121395
| 17> C     20.49809221    39.84006706    54.87597730
| 18> O     20.05607548    40.70981894    54.08825382
| 19> O     21.22218208    38.86346644    54.54721344
| 20> O     20.55512624    38.96367452    57.19354665
| 21> C     21.81584165    39.09167332    57.95415610
| 22> H     21.80121171    38.20821003    58.60663300
| 23> C     21.72269262    40.36879425    58.72393420
| 24> H     21.08157002    40.41500250    59.60673365
| 25> C     22.18567572    41.51410681    58.18139295
| 26> C     23.02584483    41.46521418    56.97854134
| 27> H     23.32273141    42.42220241    56.54730095
| 28> C     23.43449738    40.30080898    56.44378521
| 29> H     24.09800390    40.28390572    55.57442284
| 30> C     23.04195768    38.97111116    57.02500965
| 31> H     22.72317085    38.32285539    56.19469897
| 32> O     24.16758457    38.42494530    57.70910376
| 33> H     24.16585759    37.46009507    57.60358072
| 34> C     21.70124692    42.85764882    58.70845939
| 35> O     22.04278866    43.89358548    58.07845494
| 36> O     20.90951146    42.84941150    59.68380416
| 37> *
| 38> 
| 39>                          ****END OF INPUT****
================================================================================

                       ****************************
                       * Single Point Calculation *
                       ****************************

---------------------------------
CARTESIAN COORDINATES (ANGSTROEM)
---------------------------------
  C     19.374114   40.983014   56.792474
  H     18.987390   41.703015   56.068602
  H     19.116373   41.088054   57.846927
  C     20.130235   39.968133   56.351214
  C     20.498092   39.840067   54.875977
  O     20.056075   40.709819   54.088254
  O     21.222182   38.863466   54.547213
  O     20.555126   38.963675   57.193547
  C     21.815842   39.091673   57.954156
  H     21.801212   38.208210   58.606633
  C     21.722693   40.368794   58.723934
  H     21.081570   40.415002   59.606734
  C     22.185676   41.514107   58.181393
  C     23.025845   41.465214   56.978541
  H     23.322731   42.422202   56.547301
  C     23.434497   40.300809   56.443785
  H     24.098004   40.283906   55.574423
  C     23.041958   38.971111   57.025010
  H     22.723171   38.322855   56.194699
  O     24.167585   38.424945   57.709104
  H     24.165858   37.460095   57.603581
  C     21.701247   42.857649   58.708459
  O     22.042789   43.893585   58.078455
  O     20.909511   42.849411   59.683804

----------------------------
CARTESIAN COORDINATES (A.U.)
----------------------------
  NO LB      ZA    FRAG     MASS         X           Y           Z
   0 C     6.0000    0    12.011   36.611769   77.446672  107.322222
   1 H     1.0000    0     1.008   35.880967   78.807277  105.954302
   2 H     1.0000    0     1.008   36.124709   77.645170  109.314850
   3 C     6.0000    0    12.011   38.040631   75.528826  106.488362
   4 C     6.0000    0    12.011   38.735781   75.286816  103.700568
   5 O     8.0000    0    15.999   37.900490   76.930409  102.211987
   6 O     8.0000    0    15.999   40.104112   73.441308  103.079295
   7 O     8.0000    0    15.999   38.843559   73.630674  108.080140
   8 C     6.0000    0    12.011   41.225966   73.872557  109.517483
   9 H     1.0000    0     1.008   41.198320   72.203053  110.750486
  10 C     6.0000    0    12.011   41.049940   76.285965  110.972153
  11 H     1.0000    0     1.008   39.838394   76.373286  112.640402
  12 C     6.0000    0    12.011   41.924851   78.450293  109.946899
  13 C     6.0000    0    12.011   43.512541   78.357899  107.673839
  14 H     1.0000    0     1.008   44.073575   80.166345  106.858912
  15 C     6.0000    0    12.011   44.284782   76.157492  106.663296
  16 H     1.0000    0     1.008   45.538628   76.125549  105.020439
  17 C     6.0000    0    12.011   43.542990   73.644727  107.761651
  18 H     1.0000    0     1.008   42.940570   72.419701  106.192591
  19 O     8.0000    0    15.999   45.670116   72.612623  109.054402
  20 H     1.0000    0     1.008   45.666853   70.789321  108.854992
  21 C     6.0000    0    12.011   41.009413   80.989219  110.942910
  22 O     8.0000    0    15.999   41.654834   82.946856  109.752374
  23 O     8.0000    0    15.999   39.513250   80.973653  112.786044

--------------------------------
INTERNAL COORDINATES (ANGSTROEM)
--------------------------------
 C      0   0   0     0.000000000000     0.00000000     0.00000000
 H      1   0   0     1.091763441454     0.00000000     0.00000000
 H      1   2   0     1.090566887989   119.59323241     0.00000000
 C      1   2   3     1.340302822187   118.74473389   178.32251959
 C      4   1   2     1.525792664838   121.19021209     2.43118464
 O      5   4   1     1.253935964596   117.65726836   359.24461070
 O      5   4   1     1.259420734490   117.13530404   179.37334341
 O      4   1   2     1.378039996154   121.64336370   185.56923399
 C      8   4   1     1.477942412018   120.96143465   271.85943854
 H      9   8   4     1.098384051667   102.98477715   173.18463489
 C      9   8   4     1.494079293369   106.61866959    54.72863125
 H     11   9   8     1.092020265160   119.29331322    74.66318110
 C     11   9   8     1.349238755347   119.80344244   268.81928364
 C     13  11   9     1.468034951337   119.84042008   347.07401709
 H     14  13  11     1.090842054429   116.77317687   176.41689056
 C     14  13  11     1.344916538296   121.90546602   355.17990168
 H     16  14  13     1.093763023992   120.91331406   182.84712793
 C     16  14  13     1.503331486480   122.18937151     1.04068377
 H     18  16  14     1.100580034183   107.75417292   133.95928956
 O     18  16  14     1.425944526781   108.55070870   254.73536777
 H     20  18  16     0.970604997289   109.09814279   215.02807142
 C     13  11   9     1.522358508065   120.04914341   159.53840362
 O     22  13  11     1.259651194067   117.79849881   187.74008655
 O     22  13  11     1.256268407797   117.61671204     2.68281243

---------------------------
INTERNAL COORDINATES (A.U.)
---------------------------
 C      0   0   0     0.000000000000     0.00000000     0.00000000
 H      1   0   0     2.063133907375     0.00000000     0.00000000
 H      1   2   0     2.060872749023   119.59323241     0.00000000
 C      1   2   3     2.532805270454   118.74473389   178.32251959
 C      4   1   2     2.883330273690   121.19021209     2.43118464
 O      5   4   1     2.369595562560   117.65726836   359.24461070
 O      5   4   1     2.379960275568   117.13530404   179.37334341
 O      4   1   2     2.604118194322   121.64336370   185.56923399
 C      8   4   1     2.792906400421   120.96143465   271.85943854
 H      9   8   4     2.075645047517   102.98477715   173.18463489
 C      9   8   4     2.823400686830   106.61866959    54.72863125
 H     11   9   8     2.063619233844   119.29331322    74.66318110
 C     11   9   8     2.549691736879   119.80344244   268.81928364
 C     13  11   9     2.774184013051   119.84042008   347.07401709
 H     14  13  11     2.061392738234   116.77317687   176.41689056
 C     14  13  11     2.541523930360   121.90546602   355.17990168
 H     16  14  13     2.066912570755   120.91331406   182.84712793
 C     16  14  13     2.840884797948   122.18937151     1.04068377
 H     18  16  14     2.079794853067   107.75417292   133.95928956
 O     18  16  14     2.694644637780   108.55070870   254.73536777
 H     20  18  16     1.834177629091   109.09814279   215.02807142
 C     13  11   9     2.876840657888   120.04914341   159.53840362
 O     22  13  11     2.380395781053   117.79849881   187.74008655
 O     22  13  11     2.374003241433   117.61671204     2.68281243

---------------------
BASIS SET INFORMATION
---------------------
There are 3 groups of distinct atoms

 Group   1 Type C   : 7s4p1d contracted to 3s2p1d pattern {511/31/1}
 Group   2 Type H   : 4s1p contracted to 2s1p pattern {31/1}
 Group   3 Type O   : 7s4p1d contracted to 3s2p1d pattern {511/31/1}

Atom   0C    basis set group =>   1
Atom   1H    basis set group =>   2
Atom   2H    basis set group =>   2
Atom   3C    basis set group =>   1
Atom   4C    basis set group =>   1
Atom   5O    basis set group =>   3
Atom   6O    basis set group =>   3
Atom   7O    basis set group =>   3
Atom   8C    basis set group =>   1
Atom   9H    basis set group =>   2
Atom  10C    basis set group =>   1
Atom  11H    basis set group =>   2
Atom  12C    basis set group =>   1
Atom  13C    basis set group =>   1
Atom  14H    basis set group =>   2
Atom  15C    basis set group =>   1
Atom  16H    basis set group =>   2
Atom  17C    basis set group =>   1
Atom  18H    basis set group =>   2
Atom  19O    basis set group =>   3
Atom  20H    basis set group =>   2
Atom  21C    basis set group =>   1
Atom  22O    basis set group =>   3
Atom  23O    basis set group =>   3
---------------------------------
AUXILIARY/J BASIS SET INFORMATION
---------------------------------
There are 3 groups of distinct atoms

 Group   1 Type C   : 12s5p4d2f1g contracted to 6s4p3d1f1g pattern {711111/2111/211/2/1}
 Group   2 Type H   : 5s2p1d contracted to 3s1p1d pattern {311/2/1}
 Group   3 Type O   : 12s5p4d2f1g contracted to 6s4p3d1f1g pattern {711111/2111/211/2/1}

Atom   0C    basis set group =>   1
Atom   1H    basis set group =>   2
Atom   2H    basis set group =>   2
Atom   3C    basis set group =>   1
Atom   4C    basis set group =>   1
Atom   5O    basis set group =>   3
Atom   6O    basis set group =>   3
Atom   7O    basis set group =>   3
Atom   8C    basis set group =>   1
Atom   9H    basis set group =>   2
Atom  10C    basis set group =>   1
Atom  11H    basis set group =>   2
Atom  12C    basis set group =>   1
Atom  13C    basis set group =>   1
Atom  14H    basis set group =>   2
Atom  15C    basis set group =>   1
Atom  16H    basis set group =>   2
Atom  17C    basis set group =>   1
Atom  18H    basis set group =>   2
Atom  19O    basis set group =>   3
Atom  20H    basis set group =>   2
Atom  21C    basis set group =>   1
Atom  22O    basis set group =>   3
Atom  23O    basis set group =>   3


           ************************************************************
           *        Program running with 8 parallel MPI-processes     *
           *              working on a common directory               *
           ************************************************************
------------------------------------------------------------------------------
                             ORCA STARTUP CALCULATIONS
                           -- RI-GTO INTEGRALS CHOSEN --
------------------------------------------------------------------------------
------------------------------------------------------------------------------
                   ___                                                        
                  /   \      - P O W E R E D   B Y -                         
                 /     \                                                     
                 |  |  |   _    _      __       _____    __    __             
                 |  |  |  | |  | |    /  \     |  _  \  |  |  /  |          
                  \  \/   | |  | |   /    \    | | | |  |  | /  /          
                 / \  \   | |__| |  /  /\  \   | |_| |  |  |/  /          
                |  |  |   |  __  | /  /__\  \  |    /   |      \           
                |  |  |   | |  | | |   __   |  |    \   |  |\   \          
                \     /   | |  | | |  |  |  |  | |\  \  |  | \   \       
                 \___/    |_|  |_| |__|  |__|  |_| \__\ |__|  \__/        
                                                                              
                      - O R C A' S   B I G   F R I E N D -                    
                                      &                                       
                       - I N T E G R A L  F E E D E R -                       
                                                                              
 v1 FN, 2020, v2 2021, v3 2022-2024                                           
------------------------------------------------------------------------------


----------------------
SHARK INTEGRAL PACKAGE
----------------------

Number of atoms                             ...     24
Number of basis functions                   ...    264
Number of shells                            ...    120
Maximum angular momentum                    ...      2
Integral batch strategy                     ... SHARK/LIBINT Hybrid
RI-J (if used) integral strategy            ... SPLIT-RIJ (Revised 2003 algorithm where possible)
Printlevel                                  ...      1
Contraction scheme used                     ... SEGMENTED contraction
Prescreening option                         ... SCHWARTZ
   Thresh                                   ... 1.000e-10
   Tcut                                     ... 1.000e-11
   Tpresel                                  ... 1.000e-11 
Coulomb Range Separation                    ... NOT USED
Exchange Range Separation                   ... NOT USED
Multipole approximations                    ... NOT USED
Finite Nucleus Model                        ... NOT USED
CABS basis                                  ... NOT available
Auxiliary Coulomb fitting basis             ... AVAILABLE
   # of basis functions in Aux-J            ...    872
   # of shells in Aux-J                     ...    280
   Maximum angular momentum in Aux-J        ...      4
Auxiliary J/K fitting basis                 ... NOT available
Auxiliary Correlation fitting basis         ... NOT available
Auxiliary 'external' fitting basis          ... NOT available

Checking pre-screening integrals            ... done (  0.0 sec) Dimension = 120
Check shell pair data                       ... done (  0.0 sec)
Shell pair information
Shell pair cut-off parameter TPreSel        ...   1.0e-11
Total number of shell pairs                 ...      7260
Shell pairs after pre-screening             ...      6258
Total number of primitive shell pairs       ...     27260
Primitive shell pairs kept                  ...     15525
          la=0 lb=0:   1775 shell pairs
          la=1 lb=0:   2252 shell pairs
          la=1 lb=1:    747 shell pairs
          la=2 lb=0:    832 shell pairs
          la=2 lb=1:    548 shell pairs
          la=2 lb=2:    104 shell pairs

Reading point charge file                   ... ok (2 point charges)
Calculating one electron integrals          ... done (  0.0 sec)
Calculating RI/J V-Matrix + Cholesky decomp.... done (  0.3 sec)
Calculating Nuclear repulsion               ... (+Point charges) done (  0.0 sec) ENN=   1139.733535243692 Eh

Diagonalization of the overlap matrix:
Smallest eigenvalue                        ... 5.331e-04
Time for diagonalization                   ...    0.019 sec
Threshold for overlap eigenvalues          ... 1.000e-07
Number of eigenvalues below threshold      ... 0
Time for construction of square roots      ...    0.025 sec
Total time needed                          ...    0.061 sec

-------------------
DFT GRID GENERATION
-------------------

General Integration Accuracy     IntAcc      ... 4.388
Radial Grid Type                 RadialGrid  ... OptM3 with GC (2021)
Angular Grid (max. ang.)         AngularGrid ... 4 (Lebedev-302)
Angular grid pruning method      GridPruning ... 4 (adaptive)
Weight generation scheme         WeightScheme... mBecke (2022)
Basis function cutoff            BFCut       ... 1.0000e-10
Integration weight cutoff        WCut        ... 1.0000e-14
Partially contracted basis set               ... off
Rotationally invariant grid construction     ... off
Angular grids for H and He will be reduced by one unit

Total number of grid points                  ...   121631
Total number of batches                      ...     1911
Average number of points per batch           ...       63
Average number of grid points per atom       ...     5068

--------------------
COSX GRID GENERATION
--------------------

GRIDX 1
-------
General Integration Accuracy     IntAcc      ... 3.816
Radial Grid Type                 RadialGrid  ... OptM3 with GC (2021)
Angular Grid (max. ang.)         AngularGrid ... 1 (Lebedev-50)
Angular grid pruning method      GridPruning ... 4 (adaptive)
Weight generation scheme         WeightScheme... mBecke (2022)
Basis function cutoff            BFCut       ... 1.0000e-10
Integration weight cutoff        WCut        ... 1.0000e-14
Partially contracted basis set               ... on
Rotationally invariant grid construction     ... off
Angular grids for H and He will be reduced by one unit

Total number of grid points                  ...    15391
Total number of batches                      ...      135
Average number of points per batch           ...      114
Average number of grid points per atom       ...      641
UseSFitting                                  ... on

GRIDX 2
-------
General Integration Accuracy     IntAcc      ... 4.020
Radial Grid Type                 RadialGrid  ... OptM3 with GC (2021)
Angular Grid (max. ang.)         AngularGrid ... 2 (Lebedev-110)
Angular grid pruning method      GridPruning ... 4 (adaptive)
Weight generation scheme         WeightScheme... mBecke (2022)
Basis function cutoff            BFCut       ... 1.0000e-10
Integration weight cutoff        WCut        ... 1.0000e-14
Partially contracted basis set               ... on
Rotationally invariant grid construction     ... off
Angular grids for H and He will be reduced by one unit

Total number of grid points                  ...    34402
Total number of batches                      ...      279
Average number of points per batch           ...      123
Average number of grid points per atom       ...     1433
UseSFitting                                  ... on

GRIDX 3
-------
General Integration Accuracy     IntAcc      ... 4.338
Radial Grid Type                 RadialGrid  ... OptM3 with GC (2021)
Angular Grid (max. ang.)         AngularGrid ... 3 (Lebedev-194)
Angular grid pruning method      GridPruning ... 4 (adaptive)
Weight generation scheme         WeightScheme... mBecke (2022)
Basis function cutoff            BFCut       ... 1.0000e-10
Integration weight cutoff        WCut        ... 1.0000e-14
Partially contracted basis set               ... on
Rotationally invariant grid construction     ... off
Angular grids for H and He will be reduced by one unit

Total number of grid points                  ...    75578
Total number of batches                      ...      602
Average number of points per batch           ...      125
Average number of grid points per atom       ...     3149
UseSFitting                                  ... on
Initializing property integral containers    ... done (  0.0 sec)

SHARK setup successfully completed in   5.0 seconds

Maximum memory used throughout the entire STARTUP-calculation: 33.8 MB


           ************************************************************
           *        Program running with 8 parallel MPI-processes     *
           *              working on a common directory               *
           ************************************************************
-------------------------------------------------------------------------------
                                 ORCA GUESS
                   Start orbitals & Density for SCF / CASSCF
-------------------------------------------------------------------------------

------------
SCF SETTINGS
------------
Hamiltonian:
 Density Functional     Method          .... DFT(GTOs)
 Exchange Functional    Exchange        .... B88
   X-Alpha parameter    XAlpha          ....  0.666667
   Becke's b parameter  XBeta           ....  0.004200
 Correlation Functional Correlation     .... LYP
 LDA part of GGA corr.  LDAOpt          .... VWN-5
 Gradients option       PostSCFGGA      .... off
 Hybrid DFT is turned on
   Fraction HF Exchange ScalHFX         ....  0.200000
   Scaling of DF-GGA-X  ScalDFX         ....  0.720000
   Scaling of DF-GGA-C  ScalDFC         ....  0.810000
   Scaling of DF-LDA-C  ScalLDAC        ....  1.000000
   Perturbative correction              ....  0.000000
   NL short-range parameter             ....  4.800000
 RI-approximation to the Coulomb term is turned on
   Number of AuxJ basis functions       .... 872
   RIJ-COSX (HFX calculated with COS-X)).... on


General Settings:
 Integral files         IntName         .... polf_R_pc
 Hartree-Fock type      HFTyp           .... RHF
 Total Charge           Charge          ....   -2
 Multiplicity           Mult            ....    1
 Number of Electrons    NEL             ....  118
 Basis Dimension        Dim             ....  264
 Nuclear Repulsion      ENuc            ....   1139.7335352437 Eh

Convergence Acceleration:
 AO-DIIS                CNVDIIS         .... on
   Start iteration      DIISMaxIt       ....     0
   Startup error        DIISStart       ....  0.200000
   # of expansion vecs  DIISMaxEq       ....    15
   Bias factor          DIISBfac        ....   1.050
   Max. coefficient     DIISMaxC        ....  10.000
 MO-DIIS                CNVKDIIS        .... off
 Trust-Rad. Augm. Hess. CNVTRAH         .... auto
   Auto Start mean grad. ratio tolernc. ....  1.125000
   Auto Start start iteration           ....    50
   Auto Start num. interpolation iter.  ....    10
   Max. Number of Micro iterations      ....    24
   Max. Number of Macro iterations      .... Maxiter - #DIIS iter
   Number of Davidson start vectors     ....     2
   Converg. threshold    (grad. norm)   ....   5.000e-05
   Grad. Scal. Fac. for Micro threshold ....   0.100
   Minimum threshold for Micro iter.    ....   1.000e-02
   NR start threshold (gradient norm)   ....   1.000e-04
   Initial trust radius                 ....   0.400
   Minimum AH scaling param. (alpha)    ....   1.000
   Maximum AH scaling param. (alpha)    .... 1000.000
   Quad. conv. algorithm                .... NR
   White noise on init. David. guess    .... on
   Maximum white noise                  ....   0.010
   Pseudo random numbers                .... off
   Inactive MOs                         .... canonical
   Orbital update algorithm             .... Taylor
   Preconditioner                       .... Diag
   Full preconditioner red. dimension   ....   250
 SOSCF                  CNVSOSCF        .... on
   Start iteration      SOSCFMaxIt      ....   150
   Startup grad/error   SOSCFStart      ....  0.002000
   Hessian update       SOSCFHessUp     .... L-BFGS
 Level Shifting         CNVShift        .... on
   Level shift para.    LevelShift      ....    0.2500
   Turn off err/grad.   ShiftErr        ....    0.0000
 Zerner damping         CNVZerner       .... off
 Static damping         CNVDamp         .... on
   Fraction old density DampFac         ....    0.8500
   Max. Damping (<1)    DampMax         ....    0.9800
   Min. Damping (>=0)   DampMin         ....    0.0000
   Turn off err/grad.   DampErr         ....    0.0300

SCF Procedure:
 Maximum # iterations   MaxIter         ....   500
 SCF integral mode      SCFMode         .... Direct
   Integral package                     .... SHARK and LIBINT hybrid scheme
 Reset frequency        DirectResetFreq ....     1
 Integral Threshold     Thresh          ....  1.000e-10 Eh
 Primitive CutOff       TCut            ....  1.000e-11 Eh

Convergence Tolerance:
 Convergence Check Mode ConvCheckMode   .... Total+1el-Energy
 Convergence forced     ConvForced      .... 0
 Energy Change          TolE            ....  1.000e-06 Eh
 1-El. energy change                    ....  1.000e-03 Eh
 Orbital Gradient       TolG            ....  5.000e-05
 Orbital Rotation angle TolX            ....  5.000e-05
 DIIS Error             TolErr          ....  1.000e-06

------------------------------
INITIAL GUESS: MODEL POTENTIAL
------------------------------
Loading Hartree-Fock densities                     ... done
Calculating cut-offs                               ... done
Initializing the effective Hamiltonian             ... done
Setting up the integral package (SHARK)            ... done
Starting the Coulomb interaction                   ... done (   0.2 sec)
Making the grid                                    ... done (   0.5 sec)
Mapping shells                                     ... done
Starting the XC term evaluation                    ... done (   0.1 sec)
  promolecular density results
     # of electrons  =    115.996882393
     EX              =   -102.839217776
     EC              =     -4.058776685
     EX+EC           =   -106.897994461
Transforming the Hamiltonian                       ... done (   0.0 sec)
Diagonalizing the Hamiltonian                      ... done (   0.0 sec)
Back transforming the eigenvectors                 ... done (   0.0 sec)
Now organizing SCF variables                       ... done
                      ------------------
                      INITIAL GUESS DONE (   1.0 sec)
                      ------------------
             **** ENERGY FILE WAS UPDATED (polf_R_pc.en.tmp) ****
Finished Guess after   1.8 sec
Maximum memory used throughout the entire GUESS-calculation: 19.9 MB


           ************************************************************
           *        Program running with 8 parallel MPI-processes     *
           *              working on a common directory               *
           ************************************************************

-------------------------------------------------------------------------------------------
                                      ORCA LEAN-SCF
                              memory conserving SCF solver
-------------------------------------------------------------------------------------------

--------------------
CPCM SOLVATION MODEL
--------------------
CPCM parameters:
  Epsilon                                         ...       4.0000
  Refrac                                          ...       1.3300
  Rsolv                                           ...       1.3000
  Surface type                                    ... GAUSSIAN VDW
  Discretization scheme                           ... Constant charge density
    Threshold for H atoms                         ...       5.0000 (charges/Ang^2)
    Threshold for non-H atoms                     ...       5.0000 (charges/Ang^2)
  Epsilon function type                           ...         CPCM
Solvent:                                          ... CUSTOM
Radii:
  Scheme                                          ... Element-dependent radii
  Radius for C  used is    3.8550 Bohr (=   2.0400 Ang.)
  Radius for H  used is    2.4944 Bohr (=   1.3200 Ang.)
  Radius for O  used is    3.4469 Bohr (=   1.8240 Ang.)
Calculating surface                               ...        done! (  0.0s)
Cavity surface points                             ...         2096
Cavity Volume                                     ...    1688.9442
Cavity Surface-area                               ...     856.8559
Calculating surface distance matrix               ...        done! (  0.1s)
Performing Cholesky decomposition & store         ...        done! (  0.5s)
Overall time for CPCM initialization              ...                 0.6s

----------------------------------------D-I-I-S--------------------------------------------
Iteration    Energy (Eh)           Delta-E    RMSDP     MaxDP     DIISErr   Damp  Time(sec)
-------------------------------------------------------------------------------------------
    1    -836.0894393964479150     0.00e+00  2.26e-03  8.49e-02  2.97e-01  0.850   4.6
Warning: op=0 Small HOMO/LUMO gap (   0.057) - skipping pre-diagonalization
         Will do a full diagonalization
    2    -836.2486340195514458    -1.59e-01  2.48e-03  1.07e-01  2.10e-01  0.850   3.2
                               ***Turning on AO-DIIS***
    3    -836.3460655181293077    -9.74e-02  1.26e-03  4.69e-02  1.33e-01  0.850   3.1
    4    -836.4078191480625719    -6.18e-02  7.70e-04  2.41e-02  1.03e-01  0.850   3.1
    5    -836.4523824738303119    -4.46e-02  5.49e-04  1.57e-02  8.62e-02  0.850   3.1
    6    -836.4875273180159638    -3.51e-02  4.28e-04  1.19e-02  7.33e-02  0.850   3.1
    7    -836.5161683865565010    -2.86e-02  3.50e-04  9.35e-03  6.24e-02  0.850   3.1
    8    -836.5397805392926784    -2.36e-02  2.92e-04  7.56e-03  5.31e-02  0.850   3.1
    9    -836.5593523406139411    -1.96e-02  2.46e-04  6.35e-03  4.51e-02  0.850   3.2
   10    -836.5756342604463498    -1.63e-02  2.08e-04  5.36e-03  3.84e-02  0.850   3.2
   11    -836.5892195158580762    -1.36e-02  1.76e-04  4.54e-03  3.27e-02  0.850   3.2
   12    -836.6005837546244948    -1.14e-02  1.50e-04  3.85e-03  2.78e-02  0.850   3.3
   13    -836.6101112383134932    -9.53e-03  8.47e-04  2.18e-02  2.36e-02  0.000   3.4
                              *** Initializing SOSCF ***
---------------------------------------S-O-S-C-F--------------------------------------
Iteration    Energy (Eh)           Delta-E    RMSDP     MaxDP     MaxGrad    Time(sec)
--------------------------------------------------------------------------------------
   14    -836.6618058750175351    -5.17e-02  8.85e-06  2.35e-04  1.29e-04     3.4
   15    -836.6617810730244855     2.48e-05  8.28e-05  2.57e-03  3.55e-04     4.6
   16    -836.6617843096732940    -3.24e-06  1.31e-05  4.22e-04  3.07e-05     4.6
   17    -836.6617841656764085     1.44e-07  7.78e-06  2.41e-04  6.91e-05     4.6
                 **** Energy Check signals convergence ****

               *****************************************************
               *                     SUCCESS                       *
               *           SCF CONVERGED AFTER  17 CYCLES          *
               *****************************************************

Recomputing exchange energy using gridx3       ... done (    5.857 sec)
Old exchange energy                            :    -20.890593881 Eh
New exchange energy                            :    -20.890584650 Eh
Exchange energy change after final integration :      0.000009231 Eh
Total energy after final integration           :   -836.661774935 Eh
             **** ENERGY FILE WAS UPDATED (polf_R_pc.en.tmp) ****

----------------
TOTAL SCF ENERGY
----------------

Total Energy       :       -836.66177493456337 Eh          -22766.72433 eV

Components:
Nuclear Repulsion  :       1139.73353524369190 Eh           31013.72620 eV
Electronic Energy  :      -1976.17088777627123 Eh          -53774.34369 eV
One Electron Energy:      -3424.67115714698639 Eh          -93190.03988 eV
Two Electron Energy:       1448.50026937071516 Eh           39415.69618 eV
CPCM Dielectric    :         -0.22443163309704 Eh              -6.10710 eV

Virial components:
Potential Energy   :      -1666.15377463743243 Eh          -45338.34917 eV
Kinetic Energy     :        829.49199970286907 Eh           22571.62483 eV
Virial Ratio       :          2.00864357369844

DFT components:
N(Alpha)           :       59.000050226358 electrons
N(Beta)            :       59.000050226358 electrons
N(Total)           :      118.000100452716 electrons
E(X)               :      -83.141995681132 Eh       
E(C)               :       -4.848372154317 Eh       
E(XC)              :      -87.990367835449 Eh       

CPCM Solvation Model Properties:
Surface-charge          :          1.98182130887071
Corrected charge        :          2.00000000000000
Outlying charge corr.   :          0.00001586168036 Eh               0.00043 eV
Free-energy (cav+disp)  :  This term is not implemented in the current solvation scheme

---------------
SCF CONVERGENCE
---------------

  Last Energy change         ...   -1.4400e-07  Tolerance :   1.0000e-06
  Last MAX-Density change    ...    2.4146e-04  Tolerance :   1.0000e-05
  Last RMS-Density change    ...    7.7806e-06  Tolerance :   1.0000e-06
  Last DIIS Error            ...    1.2851e-04  Tolerance :   1.0000e-06
  Last Orbital Gradient      ...    6.9109e-05  Tolerance :   5.0000e-05
  Last Orbital Rotation      ...    8.5457e-05  Tolerance :   5.0000e-05


----------------
ORBITAL ENERGIES
----------------

  NO   OCC          E(Eh)            E(eV) 
   0   2.0000     -19.288716      -524.8726 
   1   2.0000     -19.246158      -523.7146 
   2   2.0000     -19.158249      -521.3224 
   3   2.0000     -19.148608      -521.0601 
   4   2.0000     -19.122528      -520.3505 
   5   2.0000     -19.120556      -520.2968 
   6   2.0000     -10.376607      -282.3618 
   7   2.0000     -10.355578      -281.7896 
   8   2.0000     -10.348121      -281.5867 
   9   2.0000     -10.346180      -281.5339 
  10   2.0000     -10.323485      -280.9163 
  11   2.0000     -10.296271      -280.1758 
  12   2.0000     -10.283165      -279.8191 
  13   2.0000     -10.281969      -279.7866 
  14   2.0000     -10.279127      -279.7093 
  15   2.0000     -10.273951      -279.5684 
  16   2.0000      -1.170339       -31.8465 
  17   2.0000      -1.120666       -30.4949 
  18   2.0000      -1.092228       -29.7210 
  19   2.0000      -1.061613       -28.8880 
  20   2.0000      -1.001508       -27.2524 
  21   2.0000      -0.967332       -26.3225 
  22   2.0000      -0.931843       -25.3567 
  23   2.0000      -0.878720       -23.9112 
  24   2.0000      -0.839129       -22.8339 
  25   2.0000      -0.825489       -22.4627 
  26   2.0000      -0.742958       -20.2169 
  27   2.0000      -0.705599       -19.2003 
  28   2.0000      -0.698532       -19.0080 
  29   2.0000      -0.651612       -17.7313 
  30   2.0000      -0.638649       -17.3785 
  31   2.0000      -0.619247       -16.8506 
  32   2.0000      -0.594728       -16.1834 
  33   2.0000      -0.583386       -15.8747 
  34   2.0000      -0.573548       -15.6070 
  35   2.0000      -0.552128       -15.0242 
  36   2.0000      -0.540024       -14.6948 
  37   2.0000      -0.527173       -14.3451 
  38   2.0000      -0.514106       -13.9895 
  39   2.0000      -0.504784       -13.7359 
  40   2.0000      -0.498006       -13.5514 
  41   2.0000      -0.482635       -13.1332 
  42   2.0000      -0.477220       -12.9858 
  43   2.0000      -0.473171       -12.8756 
  44   2.0000      -0.463672       -12.6172 
  45   2.0000      -0.458767       -12.4837 
  46   2.0000      -0.440516       -11.9870 
  47   2.0000      -0.436658       -11.8821 
  48   2.0000      -0.427658       -11.6372 
  49   2.0000      -0.400696       -10.9035 
  50   2.0000      -0.383952       -10.4479 
  51   2.0000      -0.370282       -10.0759 
  52   2.0000      -0.332653        -9.0520 
  53   2.0000      -0.332224        -9.0403 
  54   2.0000      -0.325135        -8.8474 
  55   2.0000      -0.311127        -8.4662 
  56   2.0000      -0.302084        -8.2201 
  57   2.0000      -0.297213        -8.0876 
  58   2.0000      -0.279424        -7.6035 
  59   0.0000      -0.151723        -4.1286 
  60   0.0000      -0.129255        -3.5172 
  61   0.0000      -0.096403        -2.6233 
  62   0.0000      -0.060020        -1.6332 
  63   0.0000      -0.038057        -1.0356 
  64   0.0000      -0.029752        -0.8096 
  65   0.0000       0.004601         0.1252 
  66   0.0000       0.008391         0.2283 
  67   0.0000       0.021770         0.5924 
  68   0.0000       0.031340         0.8528 
  69   0.0000       0.049865         1.3569 
*Only the first 10 virtual orbitals were printed.

                    ********************************
                    * MULLIKEN POPULATION ANALYSIS *
                    ********************************

-----------------------
MULLIKEN ATOMIC CHARGES
-----------------------
   0 C :    0.003929
   1 H :    0.051053
   2 H :   -0.037653
   3 C :   -0.054431
   4 C :    0.080410
   5 O :   -0.370366
   6 O :   -0.436197
   7 O :   -0.474263
   8 C :    0.190068
   9 H :   -0.141654
  10 C :   -0.077498
  11 H :   -0.092704
  12 C :   -0.013307
  13 C :    0.026966
  14 H :    0.009006
  15 C :   -0.041057
  16 H :    0.021157
  17 C :    0.266400
  18 H :   -0.049951
  19 O :   -0.312010
  20 H :    0.174288
  21 C :    0.083231
  22 O :   -0.376967
  23 O :   -0.428450
Sum of atomic charges:   -2.0000000

--------------------------------
MULLIKEN REDUCED ORBITAL CHARGES
--------------------------------
  0 C s       :     3.140420  s :     3.140420
      pz      :     0.846012  p :     2.830848
      px      :     0.986016
      py      :     0.998819
      dz2     :     0.006346  d :     0.024803
      dxz     :     0.003619
      dyz     :     0.005773
      dx2y2   :     0.004747
      dxy     :     0.004317

  1 H s       :     0.924297  s :     0.924297
      pz      :     0.010378  p :     0.024650
      px      :     0.005242
      py      :     0.009030

  2 H s       :     1.013876  s :     1.013876
      pz      :     0.013952  p :     0.023777
      px      :     0.005131
      py      :     0.004695

  3 C s       :     3.180375  s :     3.180375
      pz      :     0.962157  p :     2.807415
      px      :     0.949688
      py      :     0.895570
      dz2     :     0.016143  d :     0.066641
      dxz     :     0.009383
      dyz     :     0.019181
      dx2y2   :     0.011730
      dxy     :     0.010204

  4 C s       :     3.026374  s :     3.026374
      pz      :     0.945503  p :     2.752994
      px      :     0.876069
      py      :     0.931422
      dz2     :     0.033866  d :     0.140223
      dxz     :     0.019786
      dyz     :     0.030980
      dx2y2   :     0.030445
      dxy     :     0.025145

  5 O s       :     3.718499  s :     3.718499
      pz      :     1.603266  p :     4.637203
      px      :     1.554806
      py      :     1.479130
      dz2     :     0.002374  d :     0.014664
      dxz     :     0.002557
      dyz     :     0.004701
      dx2y2   :     0.002625
      dxy     :     0.002406

  6 O s       :     3.725216  s :     3.725216
      pz      :     1.765766  p :     4.697433
      px      :     1.461096
      py      :     1.470571
      dz2     :     0.001738  d :     0.013548
      dxz     :     0.001534
      dyz     :     0.002396
      dx2y2   :     0.003599
      dxy     :     0.004281

  7 O s       :     3.713115  s :     3.713115
      pz      :     1.600942  p :     4.747979
      px      :     1.507217
      py      :     1.639821
      dz2     :     0.001833  d :     0.013169
      dxz     :     0.002365
      dyz     :     0.003350
      dx2y2   :     0.003393
      dxy     :     0.002228

  8 C s       :     2.987053  s :     2.987053
      pz      :     0.939688  p :     2.759865
      px      :     0.826539
      py      :     0.993638
      dz2     :     0.007044  d :     0.063014
      dxz     :     0.017365
      dyz     :     0.013232
      dx2y2   :     0.017073
      dxy     :     0.008301

  9 H s       :     1.121940  s :     1.121940
      pz      :     0.007333  p :     0.019714
      px      :     0.002833
      py      :     0.009548

 10 C s       :     3.176140  s :     3.176140
      pz      :     0.884514  p :     2.869201
      px      :     1.004629
      py      :     0.980057
      dz2     :     0.005239  d :     0.032157
      dxz     :     0.004554
      dyz     :     0.009568
      dx2y2   :     0.007964
      dxy     :     0.004832

 11 H s       :     1.069093  s :     1.069093
      pz      :     0.011438  p :     0.023611
      px      :     0.008213
      py      :     0.003960

 12 C s       :     3.171758  s :     3.171758
      pz      :     0.931647  p :     2.800810
      px      :     0.892519
      py      :     0.976644
      dz2     :     0.008076  d :     0.040740
      dxz     :     0.005684
      dyz     :     0.010122
      dx2y2   :     0.008228
      dxy     :     0.008631

 13 C s       :     3.219881  s :     3.219881
      pz      :     0.947268  p :     2.718842
      px      :     0.937312
      py      :     0.834263
      dz2     :     0.006803  d :     0.034311
      dxz     :     0.005000
      dyz     :     0.009076
      dx2y2   :     0.006796
      dxy     :     0.006635

 14 H s       :     0.967470  s :     0.967470
      pz      :     0.005103  p :     0.023524
      px      :     0.004526
      py      :     0.013894

 15 C s       :     3.188654  s :     3.188654
      pz      :     0.901754  p :     2.819214
      px      :     0.976000
      py      :     0.941460
      dz2     :     0.005358  d :     0.033189
      dxz     :     0.004284
      dyz     :     0.008945
      dx2y2   :     0.007964
      dxy     :     0.006638

 16 H s       :     0.955875  s :     0.955875
      pz      :     0.011304  p :     0.022968
      px      :     0.008564
      py      :     0.003100

 17 C s       :     2.912543  s :     2.912543
      pz      :     0.922515  p :     2.752535
      px      :     0.792914
      py      :     1.037105
      dz2     :     0.008569  d :     0.068522
      dxz     :     0.018339
      dyz     :     0.012576
      dx2y2   :     0.015295
      dxy     :     0.013743

 18 H s       :     1.026960  s :     1.026960
      pz      :     0.011916  p :     0.022991
      px      :     0.004898
      py      :     0.006177

 19 O s       :     3.739967  s :     3.739967
      pz      :     1.758599  p :     4.559533
      px      :     1.561723
      py      :     1.239211
      dz2     :     0.001942  d :     0.012510
      dxz     :     0.002991
      dyz     :     0.001211
      dx2y2   :     0.004909
      dxy     :     0.001456

 20 H s       :     0.758156  s :     0.758156
      pz      :     0.017501  p :     0.067555
      px      :     0.015250
      py      :     0.034805

 21 C s       :     3.017918  s :     3.017918
      pz      :     0.919481  p :     2.759552
      px      :     0.896526
      py      :     0.943546
      dz2     :     0.033232  d :     0.139299
      dxz     :     0.020500
      dyz     :     0.034015
      dx2y2   :     0.025336
      dxy     :     0.026216

 22 O s       :     3.730504  s :     3.730504
      pz      :     1.558981  p :     4.632178
      px      :     1.589157
      py      :     1.484040
      dz2     :     0.002050  d :     0.014285
      dxz     :     0.001037
      dyz     :     0.004654
      dx2y2   :     0.003181
      dxy     :     0.003362

 23 O s       :     3.719399  s :     3.719399
      pz      :     1.441464  p :     4.695120
      px      :     1.470625
      py      :     1.783032
      dz2     :     0.004090  d :     0.013931
      dxz     :     0.005092
      dyz     :     0.001714
      dx2y2   :     0.001890
      dxy     :     0.001145



                     *******************************
                     * LOEWDIN POPULATION ANALYSIS *
                     *******************************

----------------------
LOEWDIN ATOMIC CHARGES
----------------------
   0 C :   -0.066090
   1 H :    0.042871
   2 H :    0.000064
   3 C :   -0.052498
   4 C :   -0.064775
   5 O :   -0.351292
   6 O :   -0.402405
   7 O :   -0.247287
   8 C :    0.058902
   9 H :   -0.035535
  10 C :   -0.089507
  11 H :   -0.014580
  12 C :   -0.025845
  13 C :   -0.009553
  14 H :    0.038846
  15 C :   -0.020616
  16 H :    0.037531
  17 C :    0.048639
  18 H :   -0.004005
  19 O :   -0.140349
  20 H :    0.081609
  21 C :   -0.039353
  22 O :   -0.347935
  23 O :   -0.396838

-------------------------------
LOEWDIN REDUCED ORBITAL CHARGES
-------------------------------
  0 C s       :     2.896788  s :     2.896788
      pz      :     1.036405  p :     3.102011
      px      :     1.014121
      py      :     1.051485
      dz2     :     0.017659  d :     0.067291
      dxz     :     0.010186
      dyz     :     0.016942
      dx2y2   :     0.010049
      dxy     :     0.012455

  1 H s       :     0.883638  s :     0.883638
      pz      :     0.030529  p :     0.073491
      px      :     0.016647
      py      :     0.026316

  2 H s       :     0.929599  s :     0.929599
      pz      :     0.041045  p :     0.070336
      px      :     0.015545
      py      :     0.013746

  3 C s       :     2.904803  s :     2.904803
      pz      :     1.007090  p :     2.983651
      px      :     0.995645
      py      :     0.980915
      dz2     :     0.042343  d :     0.164044
      dxz     :     0.021857
      dyz     :     0.046166
      dx2y2   :     0.026783
      dxy     :     0.026896

  4 C s       :     2.860005  s :     2.860005
      pz      :     1.001595  p :     2.878947
      px      :     0.903897
      py      :     0.973455
      dz2     :     0.083872  d :     0.325823
      dxz     :     0.045070
      dyz     :     0.072992
      dx2y2   :     0.062572
      dxy     :     0.061316

  5 O s       :     3.570265  s :     3.570265
      pz      :     1.643901  p :     4.755112
      px      :     1.568677
      py      :     1.542535
      dz2     :     0.003626  d :     0.025914
      dxz     :     0.004063
      dyz     :     0.009696
      dx2y2   :     0.004090
      dxy     :     0.004439

  6 O s       :     3.567389  s :     3.567389
      pz      :     1.770285  p :     4.810478
      px      :     1.509126
      py      :     1.531067
      dz2     :     0.003184  d :     0.024538
      dxz     :     0.002696
      dyz     :     0.004355
      dx2y2   :     0.005125
      dxy     :     0.009178

  7 O s       :     3.458747  s :     3.458747
      pz      :     1.605905  p :     4.762288
      px      :     1.516251
      py      :     1.640132
      dz2     :     0.003596  d :     0.026252
      dxz     :     0.005475
      dyz     :     0.006508
      dx2y2   :     0.006637
      dxy     :     0.004036

  8 C s       :     2.872236  s :     2.872236
      pz      :     0.976127  p :     2.918942
      px      :     0.884651
      py      :     1.058164
      dz2     :     0.013730  d :     0.149920
      dxz     :     0.041770
      dyz     :     0.034524
      dx2y2   :     0.043438
      dxy     :     0.016458

  9 H s       :     0.971555  s :     0.971555
      pz      :     0.023799  p :     0.063980
      px      :     0.010344
      py      :     0.029837

 10 C s       :     2.873145  s :     2.873145
      pz      :     1.038954  p :     3.129356
      px      :     1.046983
      py      :     1.043420
      dz2     :     0.013526  d :     0.087005
      dxz     :     0.012255
      dyz     :     0.026652
      dx2y2   :     0.022235
      dxy     :     0.012337

 11 H s       :     0.939784  s :     0.939784
      pz      :     0.034480  p :     0.074796
      px      :     0.026245
      py      :     0.014070

 12 C s       :     2.897424  s :     2.897424
      pz      :     0.996265  p :     3.022118
      px      :     0.933862
      py      :     1.091991
      dz2     :     0.020770  d :     0.106303
      dxz     :     0.014739
      dyz     :     0.026302
      dx2y2   :     0.022421
      dxy     :     0.022070

 13 C s       :     2.870074  s :     2.870074
      pz      :     1.001005  p :     3.049592
      px      :     0.972837
      py      :     1.075750
      dz2     :     0.017718  d :     0.089888
      dxz     :     0.012949
      dyz     :     0.024268
      dx2y2   :     0.018843
      dxy     :     0.016110

 14 H s       :     0.889297  s :     0.889297
      pz      :     0.016362  p :     0.071857
      px      :     0.014661
      py      :     0.040834

 15 C s       :     2.879642  s :     2.879642
      pz      :     1.016115  p :     3.055233
      px      :     0.989793
      py      :     1.049325
      dz2     :     0.013172  d :     0.085741
      dxz     :     0.010456
      dyz     :     0.023575
      dx2y2   :     0.021780
      dxy     :     0.016758

 16 H s       :     0.893084  s :     0.893084
      pz      :     0.033196  p :     0.069385
      px      :     0.025375
      py      :     0.010814

 17 C s       :     2.844829  s :     2.844829
      pz      :     0.997894  p :     2.948853
      px      :     0.905025
      py      :     1.045934
      dz2     :     0.017425  d :     0.157678
      dxz     :     0.045377
      dyz     :     0.030207
      dx2y2   :     0.036741
      dxy     :     0.027929

 18 H s       :     0.928718  s :     0.928718
      pz      :     0.037667  p :     0.075287
      px      :     0.016001
      py      :     0.021618

 19 O s       :     3.456479  s :     3.456479
      pz      :     1.754951  p :     4.660296
      px      :     1.577772
      py      :     1.327573
      dz2     :     0.003533  d :     0.023575
      dxz     :     0.004798
      dyz     :     0.001889
      dx2y2   :     0.010620
      dxy     :     0.002735

 20 H s       :     0.739932  s :     0.739932
      pz      :     0.047081  p :     0.178458
      px      :     0.040403
      py      :     0.090974

 21 C s       :     2.850751  s :     2.850751
      pz      :     0.955999  p :     2.867859
      px      :     0.915256
      py      :     0.996605
      dz2     :     0.070433  d :     0.320744
      dxz     :     0.049204
      dyz     :     0.083242
      dx2y2   :     0.058772
      dxy     :     0.059094

 22 O s       :     3.574991  s :     3.574991
      pz      :     1.592933  p :     4.747683
      px      :     1.598109
      py      :     1.556641
      dz2     :     0.003076  d :     0.025262
      dxz     :     0.001902
      dyz     :     0.008972
      dx2y2   :     0.006172
      dxy     :     0.005139

 23 O s       :     3.568075  s :     3.568075
      pz      :     1.501108  p :     4.803835
      px      :     1.514000
      py      :     1.788727
      dz2     :     0.006264  d :     0.024929
      dxz     :     0.010931
      dyz     :     0.002765
      dx2y2   :     0.003110
      dxy     :     0.001859



                      *****************************
                      * MAYER POPULATION ANALYSIS *
                      *****************************

  NA   - Mulliken gross atomic population
  ZA   - Total nuclear charge
  QA   - Mulliken gross atomic charge
  VA   - Mayer's total valence
  BVA  - Mayer's bonded valence
  FA   - Mayer's free valence

  ATOM       NA         ZA         QA         VA         BVA        FA
  0 C      5.9961     6.0000     0.0039     3.8869     3.8869    -0.0000
  1 H      0.9489     1.0000     0.0511     1.0189     1.0189    -0.0000
  2 H      1.0377     1.0000    -0.0377     1.0129     1.0129    -0.0000
  3 C      6.0544     6.0000    -0.0544     3.8402     3.8402     0.0000
  4 C      5.9196     6.0000     0.0804     4.5274     4.5274     0.0000
  5 O      8.3704     8.0000    -0.3704     2.1356     2.1356     0.0000
  6 O      8.4362     8.0000    -0.4362     2.0424     2.0424     0.0000
  7 O      8.4743     8.0000    -0.4743     1.9593     1.9593     0.0000
  8 C      5.8099     6.0000     0.1901     3.8046     3.8046     0.0000
  9 H      1.1417     1.0000    -0.1417     0.9847     0.9847    -0.0000
 10 C      6.0775     6.0000    -0.0775     3.8483     3.8483     0.0000
 11 H      1.0927     1.0000    -0.0927     1.0426     1.0426    -0.0000
 12 C      6.0133     6.0000    -0.0133     3.7228     3.7228    -0.0000
 13 C      5.9730     6.0000     0.0270     3.9046     3.9046     0.0000
 14 H      0.9910     1.0000     0.0090     1.0291     1.0291     0.0000
 15 C      6.0411     6.0000    -0.0411     3.8881     3.8881     0.0000
 16 H      0.9788     1.0000     0.0212     0.9909     0.9909    -0.0000
 17 C      5.7336     6.0000     0.2664     3.8819     3.8819     0.0000
 18 H      1.0500     1.0000    -0.0500     1.0748     1.0748    -0.0000
 19 O      8.3120     8.0000    -0.3120     2.0694     2.0694    -0.0000
 20 H      0.8257     1.0000     0.1743     1.0093     1.0093    -0.0000
 21 C      5.9168     6.0000     0.0832     4.5537     4.5537     0.0000
 22 O      8.3770     8.0000    -0.3770     2.1220     2.1220    -0.0000
 23 O      8.4284     8.0000    -0.4284     2.0641     2.0641    -0.0000

  Mayer bond orders larger than 0.100000
B(  0-C ,  1-H ) :   0.9182 B(  0-C ,  2-H ) :   0.9254 B(  0-C ,  3-C ) :   1.9343 
B(  3-C ,  4-C ) :   0.8213 B(  3-C ,  7-O ) :   0.9955 B(  4-C ,  5-O ) :   1.9311 
B(  4-C ,  6-O ) :   1.7633 B(  5-O ,  6-O ) :   0.1237 B(  6-O , 18-H ) :   0.1112 
B(  7-O ,  8-C ) :   0.8900 B(  8-C ,  9-H ) :   0.8761 B(  8-C , 10-C ) :   0.9880 
B(  8-C , 17-C ) :   0.9444 B( 10-C , 11-H ) :   0.9125 B( 10-C , 12-C ) :   1.7803 
B( 12-C , 13-C ) :   1.0775 B( 12-C , 21-C ) :   0.8299 B( 13-C , 14-H ) :   0.9790 
B( 13-C , 15-C ) :   1.7705 B( 15-C , 16-H ) :   0.9687 B( 15-C , 17-C ) :   0.9810 
B( 17-C , 18-H ) :   0.8726 B( 17-C , 19-O ) :   1.0651 B( 19-O , 20-H ) :   0.9705 
B( 21-C , 22-O ) :   1.8969 B( 21-C , 23-O ) :   1.8351 B( 22-O , 23-O ) :   0.1248 


-------
TIMINGS
-------

Total SCF time: 0 days 0 hours 1 min 7 sec 

Total time                  ....      67.875 sec
Sum of individual times     ....      67.084 sec  ( 98.8%)

SCF preparation             ....       1.652 sec  (  2.4%)
Fock matrix formation       ....      60.909 sec  ( 89.7%)
  Startup                   ....       0.601 sec  (  1.0% of F)
  Split-RI-J                ....       5.746 sec  (  9.4% of F)
  Chain of spheres X        ....      34.584 sec  ( 56.8% of F)
  XC integration            ....      11.267 sec  ( 18.5% of F)
    XC Preparation          ....       0.000 sec  (  0.0% of XC)
    Basis function eval.    ....       2.849 sec  ( 25.3% of XC)
    Density eval.           ....       2.102 sec  ( 18.7% of XC)
    XC-Functional eval.     ....       0.460 sec  (  4.1% of XC)
    XC-Potential eval.      ....       2.940 sec  ( 26.1% of XC)
  CPCM terms                ....       7.244 sec  ( 11.9% of F)
Diagonalization             ....       0.000 sec  (  0.0%)
Density matrix formation    ....       0.763 sec  (  1.1%)
Total Energy calculation    ....       0.352 sec  (  0.5%)
Population analysis         ....       0.119 sec  (  0.2%)
Orbital Transformation      ....       0.182 sec  (  0.3%)
Orbital Orthonormalization  ....       0.000 sec  (  0.0%)
DIIS solution               ....       2.818 sec  (  4.2%)
SOSCF solution              ....       0.289 sec  (  0.4%)
Finished LeanSCF after  68.2 sec

Maximum memory used throughout the entire LEANSCF-calculation: 31.1 MB


-------------------------------------------------------------------------------
                          DFT DISPERSION CORRECTION                            
                                                                               
                              DFTD3 V3.1  Rev 1                                
                          USING Becke-Johnson damping                          
-------------------------------------------------------------------------------
The B3LYP functional is recognized
Active option DFTDOPT                   ...         4   

molecular C6(AA) [au] = 6928.786757 


            DFT-D V3
 parameters
 s6 scaling factor         :     1.0000 
 a1 scaling factor         :     0.3981 
 s8 scaling factor         :     1.9889 
 a2 scaling factor         :     4.4211 
 ad hoc parameters k1-k3   :    16.0000     1.3333    -4.0000 

 Edisp/kcal,au: -33.411684536342  -0.053244902831 
 E6   /kcal   : -15.647845248 
 E8   /kcal   : -17.763839288 
 % E8         :  53.166547975 

-------------------------   ----------------
Dispersion correction           -0.053244903
-------------------------   ----------------


-------------------------   --------------------
FINAL SINGLE POINT ENERGY      -836.715019837395
-------------------------   --------------------



           ************************************************************
           *        Program running with 8 parallel MPI-processes     *
           *              working on a common directory               *
           ************************************************************

------------------------------------------------------------------------------
                              ORCA PROPERTY CALCULATIONS
------------------------------------------------------------------------------

GBWName                                 ... polf_R_pc.gbw
Number of atoms                         ...     24
Number of basis functions               ...    264
Max core memory                         ...   3000 MB

Electric properties:
Dipole moment                           ... YES
Quadrupole moment                       ...  NO
Static polarizability (Dipole/Dipole)   ...  NO
Static polarizability (Dipole/Quad.)    ...  NO
Static polarizability (Quad./Quad.)     ...  NO
Static polarizability (Velocity)        ...  NO

Atomic electric properties:
Dipole moment                           ...  NO
Quadrupole moment                       ...  NO
Static polarizability                   ...  NO

Choice of electric origin               ... Center of mass
Position of electric origin             ...    40.846256    76.630677   107.843484

General magnetic properties:
Magnetizability                         ...  NO

EPR properties:
g-Tensor (aka g-matrix)                 ...  NO
Zero-Field splitting spin-orbit         ...  NO
Zero-field splitting spin-spin          ...  NO
Hyperfine couplings                     ...  NO (   0 nuclei)
Quadrupole couplings                    ...  NO (   0 nuclei)
Contact density                         ...  NO (   0 nuclei)

NMR properties:
Chemical shifts                         ...  NO (   0 nuclei)
Spin-rotation constants                 ...  NO (   0 nuclei)
Spin-spin couplings                     ...  NO (   0 nuclei,    0 pairs)

Choice of magnetic origin               ... GIAO
Position of magnetic origin             ...     0.000000     0.000000     0.000000

Properties with geometric perturbations:
SCF Hessian                             ...  NO
IR spectrum                             ...  NO
VCD spectrum                            ...  NO
X-ray spectroscopy properties:
SCF XES/XAS/RIXS spectra                ...  NO


-------------
DIPOLE MOMENT
-------------

Method             : SCF
Type of density    : Electron Density
Multiplicity       :   1
Irrep              :   0
Energy             :  -836.6617749345633683 Eh
Relativity type    : 
Basis              : AO
                                X                 Y                 Z
Electronic contribution:      0.638554852       2.229221481      -0.683656043
Nuclear contribution   :      2.219201252      -4.221843304       1.393098155
                        -----------------------------------------
Total Dipole Moment    :      2.857756105      -1.992621823       0.709442112
                        -----------------------------------------
Magnitude (a.u.)       :      3.555364931
Magnitude (Debye)      :      9.037019471



--------------------
Rotational spectrum 
--------------------
 
Rotational constants in cm-1:             0.023208             0.016273             0.012591 
Rotational constants in MHz :           695.743474           487.844883           377.473733 

Dipole components along the rotational axes: 
x,y,z [a.u.] :    -0.681286    -3.470062    -0.367613 
x,y,z [Debye]:    -1.731692    -8.820197    -0.934397 

 

Dipole moment calculation done in   0.0 sec 

Maximum memory used throughout the entire PROP-calculation: 13.8 MB

--------------------------------
SUGGESTED CITATIONS FOR THIS RUN
--------------------------------

Below you find a list of papers that are relevant to this ORCA run
We neither can nor want to force you to cite these papers, but we appreciate if you do
You receive ORCA, which is the product of decades of hard work by many enthusiastic individuals, for free
The only thing we kindly ask in return is that you cite our papers,
We deeply appreciate it, if you show your appreciation for ORCA by not just citing the generic ORCA reference.

Please note that relegating all ORCA citations to the supporting information does *not* help us.
SI sections are not indexed - citations you put there will not count into any citation statistics
But we need these citations in order to attract the funding resources that allow us to do what we are doing

Therefore, if you are a happy ORCA user, please consider citing a few of the papers listed below in the main body of your paper

In addition to the list printed below, the program has created the file polf_R_pc.bibtex that contains the list in bibtex format
You can import this file easily into all common literature databanks and citation aid programs


List of essential papers. We consider these as the minimum necessary citations

  1. Neese,F.
     Software update: the ORCA program system, version 5.0
     WIRES Comput. Molec. Sci., 2022 12(1)e1606
     doi.org/10.1002/wcms.1606

List of papers to cite with high priority. The work reported in these papers was absolutely
necessary for this run to complete.
Our perspective: the developers of density functionals and basis sets usually get cited in chemistry papers
Good! But without the algorithms to do something with them, the functionals or basis sets would not do anything.
Hence, in our opinion, the algorithm design and method developments papers are equally worthy of getting cited

  1. Neese,F.
     An improvement of the resolution of the identity approximation for the formation of the Coulomb matrix
     J. Comp. Chem., 2003 24(14)1740-1747
     doi.org/10.1002/jcc.10318
  2. Neese,F.; Wennmohs,F.; Hansen,A.; Becker,U.
     Efficient, approximate and parallel Hartree-Fock and hybrid DFT calculations. A 'chain-of-spheres' algorithm for the Hartree-Fock exchange
     Chem. Phys., 2009 356(1-3)98-109
     doi.org/10.1016/j.chemphys.2008.10.036
  3. Garcia-Rates,M.; Neese,F.
     Effect of the Solute Cavity on the Solvation Energy and its Derivatives within the Framework of the Gaussian Charge Scheme
     J. Comput. Chem., 2020 41 922-939
     doi.org/10.1002/jcc.26139
  4. Helmich-Paris,B.; de Souza,B.; Neese,F.; Izsák,R.
     An improved chain of spheres for exchange algorithm
     J. Chem. Phys., 2021 155 104109
     doi.org/doi: 10.1063/5.0058766.
  5. Neese,F.
     The SHARK Integral Generation and Digestion System
     J. Comp. Chem., 2022  1-16
     doi.org/10.1002/jcc.26942
  6. Grimme,S.; Antony,J.; Ehrlich,S.; Krieg,H.
     A consistent and accurate ab initio parametrization of density functional dispersion correction (DFT-D) for the 94 elements H-Pu
     J. Chem. Phys., 2010 132 154104
     doi.org/10.1063/1.3382344
  7. Grimme,S.; Ehrlich,S.; Goerigk,L.
     Effect of the damping function in dispersion corrected density functional theory
     J. Comput. Chem., 2011 32(7)1456-1465
     doi.org/10.1002/jcc.21759

List of suggested additional citations. These are papers that are important in the 'surrounding' of 
of this run, or papers that preceded the highly important papers. If you like your results we are grateful for a citation.

  1. Izsak,R.; Neese,F.
     An overlap fitted chain of spheres exchange method
     J. Chem. Phys., 2011 135 144105
     doi.org/10.1063/1.3646921
  2. Izsak,R.; Hansen,A.; Neese,F.
     The resolution of identity and chain of spheres approximations for the LPNO-CCSD singles Fock term
     Molec. Phys., 2012 110 2413-2417
     doi.org/10.1080/00268976.2012.687466
  3. Neese,F.
     The ORCA program system
     WIRES Comput. Molec. Sci., 2012 2(1)73-78
     doi.org/10.1002/wcms.81
  4. Izsak,R.; Neese,F.; Klopper,W.
     Robust fitting techniques in the chain of spheres approximation to the Fock exchange: The role of the complementary space
     J. Chem. Phys., 2013 139 
     doi.org/10.1063/1.4819264
  5. Neese,F.
     Software update: the ORCA program system, version 4.0
     WIRES Comput. Molec. Sci., 2018 8(1)1-6
     doi.org/10.1002/wcms.1327
  6. Neese,F.; Wennmohs,F.; Becker,U.; Riplinger,C.
     The ORCA quantum chemistry program package
     J. Chem. Phys., 2020 152 Art. No. L224108
     doi.org/10.1063/5.0004608

List of optional additional citations

  1. Neese,F.
     Approximate second-order SCF convergence for spin unrestricted wavefunctions
     Chem. Phys. Lett., 2000 325(1-3)93-98
     doi.org/10.1016/s0009-2614(00)00662-x

Timings for individual modules:

Sum of individual times          ...       80.644 sec (=   1.344 min)
Startup calculation              ...        6.645 sec (=   0.111 min)   8.2 %
SCF iterations                   ...       72.159 sec (=   1.203 min)  89.5 %
Property calculations            ...        1.840 sec (=   0.031 min)   2.3 %
                             ****ORCA TERMINATED NORMALLY****
TOTAL RUN TIME: 0 days 0 hours 1 minutes 29 seconds 127 msec
