
                                 *****************
                                 * O   R   C   A *
                                 *****************

                                            #,                                       
                                            ###                                      
                                            ####                                     
                                            #####                                    
                                            ######                                   
                                           ########,                                 
                                     ,,################,,,,,                         
                               ,,#################################,,                 
                          ,,##########################################,,             
                       ,#########################################, ''#####,          
                    ,#############################################,,   '####,        
                  ,##################################################,,,,####,       
                ,###########''''           ''''###############################       
              ,#####''   ,,,,##########,,,,          '''####'''          '####       
            ,##' ,,,,###########################,,,                        '##       
           ' ,,###''''                  '''############,,,                           
         ,,##''                                '''############,,,,        ,,,,,,###''
      ,#''                                            '''#######################'''  
     '                                                          ''''####''''         
             ,#######,   #######,   ,#######,      ##                                
            ,#'     '#,  ##    ##  ,#'     '#,    #''#        ,####,   ,####,        
            ##       ##  ##   ,#'  ##            #'  '#       #'       #'  '#        
            ##       ##  #######   ##           ,######,      #####,   #    #        
            '#,     ,#'  ##    ##  '#,     ,#' ,#      #,     #,   #   #,  ,#        
             '#######'   ##     ##  '#######'  #'      '#     '####' # '####'        



                #########################################################
                #                        -***-                          #
                #          Department of theory and spectroscopy        #
                #                                                       #
                #                      Frank Neese                      #
                #                                                       #
                #     Directorship, Architecture, Infrastructure        #
                #                    SHARK, DRIVERS                     #
                #        Core code/Algorithms in most modules           #
                #                                                       #
                #        Max Planck Institute fuer Kohlenforschung      #
                #                Kaiser Wilhelm Platz 1                 #
                #                 D-45470 Muelheim/Ruhr                 #
                #                      Germany                          #
                #                                                       #
                #                  All rights reserved                  #
                #                        -***-                          #
                #########################################################


                         Program Version 6.0.1  -  RELEASE   -


 With contributions from (in alphabetic order):
[Max-Planck-Institut fuer Kohlenforschung]                               
  Daniel Aravena         : Magnetic Suceptibility                        
  Michael Atanasov       : Ab Initio Ligand Field Theory (pilot matlab implementation)
  Alexander A. Auer      : GIAO ZORA, VPT2 properties, NMR spectrum      
  Ute Becker             : All parallelization in ORCA, NUMFREQ, NUMCALC 
  Giovanni Bistoni       : ED, misc. LED, open-shell LED, HFLD           
  Martin Brehm           : Molecular dynamics                            
  Dmytro Bykov           : pre 5.0 version of the SCF Hessian            
  Marcos Casanova-Páez   : Triplet and SCS-CIS(D). UHF-(DLPNO)-IP/EA/STEOM-CCSD. UHF-CVS-IP/STEOM-CCSD   
  Vijay G. Chilkuri      : MRCI spin determinant printing, contributions to CSF-ICE 
  Pauline Colinet        : FMM embedding                                 
  Dipayan Datta          : RHF DLPNO-CCSD density                        
  Achintya Kumar Dutta   : EOM-CC, STEOM-CC                              
  Nicolas Foglia         : Exact transition moments, OPA infrastructure, MCD improvements    
  Dmitry Ganyushin       : Spin-Orbit,Spin-Spin,Magnetic field MRCI      
  Miquel Garcia-Rates    : C-PCM and meta-GGA Hessian, CCSD/C-PCM, Gaussian charge scheme 
  Tiago L. C. Gouveia    : GS-ROHF, GS-ROCIS                             
  Yang Guo               : DLPNO-NEVPT2, F12-NEVPT2, CIM, IAO-localization        
  Andreas Hansen         : Spin unrestricted coupled pair/coupled cluster methods 
  Ingolf Harden          : AUTO-CI MPn and infrastructure                
  Benjamin Helmich-Paris : MC-RPA, TRAH-(SCF,CASSCF), AVAS, COSX integrals, SCF dyn. polar. 
  Lee Huntington         : MR-EOM, pCC                                   
  Robert Izsak           : Overlap fitted RIJCOSX, COSX-SCS-MP3, EOM     
  Riya Kayal             : Wick's Theorem for AUTO-CI, AUTO-CI UHF-CCSDT 
  Emily Kempfer          : AUTO-CI, RHF CISDT and CCSDT                  
  Christian Kollmar      : KDIIS, OOCD, Brueckner-CCSD(T), CCSD density, CASPT2, CASPT2-K, improved NEVPT2 
  Axel Koslowski         : Symmetry handling                             
  Simone Kossmann        : meta-GGA functionals, TD-DFT gradient, OOMP2, (MP2 Hessian; deprecated post 5.0) 
  Lucas Lang             : DCDCAS                                        
  Marvin Lechner         : AUTO-CI (C++ implementation), FIC-MRCC        
  Spencer Leger          : CASSCF response                               
  Dagmar Lenk            : GEPOL surface, SMD, ORCA-2-JSON               
  Dimitrios Liakos       : Extrapolation schemes; Compound Job, initial MDCI parallelization 
  Dimitrios Manganas     : Further ROCIS development; embedding schemes. LFT, Crystal Embedding 
  Dimitrios Pantazis     : SARC Basis sets                               
  Anastasios Papadopoulos: AUTO-CI, single reference methods and gradients 
  Taras Petrenko         : pre 6.0 DFT Hessian and TD-DFT gradient, (ASA, deprecated), ECA, 1-Electron XAS/XES, NRVS 
  Peter Pinski           : DLPNO-MP2, DLPNO-MP2 Gradient                 
  Christoph Reimann      : Effective Core Potentials                     
  Marius Retegan         : Local ZFS, SOC                                
  Christoph Riplinger    : Optimizer, TS searches, QM/MM, DLPNO-CCSD(T), (RO)-DLPNO pert. Triples 
  Michael Roemelt        : Original ROCIS implementation                 
  Masaaki Saitow         : Open-shell DLPNO-CCSD energy and density      
  Barbara Sandhoefer     : DKH picture change effects                    
  Kantharuban Sivalingam : CASSCF convergence/infrastructure, NEVPT2 and variants, FIC-MRCI 
  Bernardo de Souza      : ESD, SOC TD-DFT                               
  Georgi L. Stoychev     : AutoAux, RI-MP2 NMR, DLPNO-MP2 response, X2C  
  Van Anh Tran           : RI-MP2 g-tensors                              
  Willem Van den Heuvel  : Paramagnetic NMR                              
  Zikuan Wang            : NOTCH, Electric field optimization            
  Frank Wennmohs         : Technical directorship and infrastructure     
  Hang Xu                : AUTO-CI-Response properties                   
                                                                         
[FACCTs GmbH]                                                            
  Markus Bursch, Miquel Garcia-Rates, Christoph Riplinger, Bernardo de Souza, Georgi L. Stoychev 
                                                                 
  APM, Basis sets (HGBS, AHGBS, def-TZVP (Ac-Lr), def2-XVPD (La-Lu)), CI-OPT, improved COSX, DLPNO-Multilevel,           
  DOCKER, DRACO, updates on ESD, GOAT, IRC, LR-CPCM, MBIS, meta-GGA TD-DFT gradient, ML-optimized integration grids, 
  MM, NACMEs, nearIR, NEB, NEB-TS, NL-DFT gradient (VV10), 2- and 3-layer-ONIOM, interface openCOSMO-RS, QMMM,   
  Crystal-QMMM, SF, symmetry and pop. for TD-DFT, r2SCAN hybrids, SOLVATOR                                   
                                                                         
[Other institutions]                                                     
  V. Asgeirsson          : NEB                                           
  Christoph Bannwarth    : sTDA-DFT, sTD-DFT, PBEh-3c, B97-3c, D3        
  Sebastian Ehlert       : rSCAN, r2SCAN, r2SCAN-3c, D4, dhf basis sets  
  Marvin Friede          : D4 for Fr, Ra, Ac-Lr                          
  Lars Goerigk           : TD-DFT with DH, B97 family of functionals     
  Stefan Grimme          : VdW corrections, initial TS optimization, DFT functionals, gCP, sTDA/sTD-DF 
  Waldemar Hujo          : DFT-NL                                        
  H. Jonsson             : NEB                                           
  Holger Kruse           : gCP                                           
  Marcel Mueller         : wB97X-3c, vDZP basis set                      
  Hagen Neugebauer       : wr2SCAN                                       
  Tobias Risthaus        : range-separated hybrid DFT                    
  Lukas Wittmann         : regularized MP2, r2SCAN double-hybrids, wr2SCAN        
                                                                         
We gratefully acknowledge several colleagues who have allowed us to      
interface, adapt or use parts of their codes:                            
  Ed Valeev, F. Pavosevic, A. Kumar             : LibInt (2-el integral package), F12 methods 
  Garnet Chan, S. Sharma, J. Yang, R. Olivares  : DMRG                   
  Ulf Ekstrom                                   : XCFun DFT Library      
  Mihaly Kallay                                 : mrcc  (arbitrary order and MRCC methods)
  Frank Weinhold                                : gennbo (NPA and NBO analysis)           
  Simon Mueller                                 : openCOSMO-RS                            
  Christopher J. Cramer and Donald G. Truhlar   : smd solvation model                     
  S Lehtola, MJT Oliveira, MAL Marques          : LibXC Library                           
  Liviu Ungur et al                             : ANISO software                          


 Your calculation uses the libint2 library for the computation of 2-el integrals
 For citations please refer to: http://libint.valeyev.net

 Your ORCA version has been built with support for libXC version: 6.2.2
 For citations please refer to: https://libxc.gitlab.io

 This ORCA versions uses:
   CBLAS   interface :  Fast vector & matrix operations
   LAPACKE interface :  Fast linear algebra routines
   SCALAPACK package :  Parallel linear algebra routines
   Shared memory     :  Shared parallel matrices
   BLAS/LAPACK       :  OpenBLAS 0.3.27  USE64BITINT DYNAMIC_ARCH NO_AFFINITY Bulldozer SINGLE_THREADED
        Core in use  :  Bulldozer
   Copyright (c) 2011-2014, The OpenBLAS Project


NOTE: MaxCore=3000 MB was set to SCF,MP2,MDCI,CIPSI,MRCI and CIS
      => If you want to overwrite this, your respective input block should be placed after the MaxCore statement
Your calculation utilizes the atom-pairwise dispersion correction
with the Becke-Johnson damping scheme (D3BJ)


================================================================================

----- Orbital basis set information -----
Your calculation utilizes the basis: def2-SVP
   F. Weigend and R. Ahlrichs, Phys. Chem. Chem. Phys. 7, 3297 (2005).

----- AuxJ basis set information -----
Your calculation utilizes the auxiliary basis: def2/J
   F. Weigend, Phys. Chem. Chem. Phys. 8, 1057 (2006).

================================================================================
                                        WARNINGS
                       Please study these warnings very carefully!
================================================================================

WARNING: Old DensityContainer found on disk!
         Will remove this file - 
         If you want to keep old densities, please start your calculation with a different basename. 


================================================================================
                                       INPUT FILE
================================================================================
NAME = polf_R_bare.inp
|  1> ! B3LYP D3BJ def2-SVP def2/J RIJCOSX CPCM KeepDens
|  2> %maxcore 3000
|  3> %pal nprocs 8 end
|  4> %cpcm epsilon 4.0 end
|  5> %scf MaxIter 300 end
|  6> * xyz -2 1
|  7> C     19.37411384    40.98301379    56.79247363
|  8> H     18.98738970    41.70301481    56.06860183
|  9> H     19.11637252    41.08805412    57.84692708
| 10> C     20.13023466    39.96813308    56.35121395
| 11> C     20.49809221    39.84006706    54.87597730
| 12> O     20.05607548    40.70981894    54.08825382
| 13> O     21.22218208    38.86346644    54.54721344
| 14> O     20.55512624    38.96367452    57.19354665
| 15> C     21.81584165    39.09167332    57.95415610
| 16> H     21.80121171    38.20821003    58.60663300
| 17> C     21.72269262    40.36879425    58.72393420
| 18> H     21.08157002    40.41500250    59.60673365
| 19> C     22.18567572    41.51410681    58.18139295
| 20> C     23.02584483    41.46521418    56.97854134
| 21> H     23.32273141    42.42220241    56.54730095
| 22> C     23.43449738    40.30080898    56.44378521
| 23> H     24.09800390    40.28390572    55.57442284
| 24> C     23.04195768    38.97111116    57.02500965
| 25> H     22.72317085    38.32285539    56.19469897
| 26> O     24.16758457    38.42494530    57.70910376
| 27> H     24.16585759    37.46009507    57.60358072
| 28> C     21.70124692    42.85764882    58.70845939
| 29> O     22.04278866    43.89358548    58.07845494
| 30> O     20.90951146    42.84941150    59.68380416
| 31> *
| 32> 
| 33>                          ****END OF INPUT****
================================================================================

                       ****************************
                       * Single Point Calculation *
                       ****************************

---------------------------------
CARTESIAN COORDINATES (ANGSTROEM)
---------------------------------
  C     19.374114   40.983014   56.792474
  H     18.987390   41.703015   56.068602
  H     19.116373   41.088054   57.846927
  C     20.130235   39.968133   56.351214
  C     20.498092   39.840067   54.875977
  O     20.056075   40.709819   54.088254
  O     21.222182   38.863466   54.547213
  O     20.555126   38.963675   57.193547
  C     21.815842   39.091673   57.954156
  H     21.801212   38.208210   58.606633
  C     21.722693   40.368794   58.723934
  H     21.081570   40.415002   59.606734
  C     22.185676   41.514107   58.181393
  C     23.025845   41.465214   56.978541
  H     23.322731   42.422202   56.547301
  C     23.434497   40.300809   56.443785
  H     24.098004   40.283906   55.574423
  C     23.041958   38.971111   57.025010
  H     22.723171   38.322855   56.194699
  O     24.167585   38.424945   57.709104
  H     24.165858   37.460095   57.603581
  C     21.701247   42.857649   58.708459
  O     22.042789   43.893585   58.078455
  O     20.909511   42.849411   59.683804

----------------------------
CARTESIAN COORDINATES (A.U.)
----------------------------
  NO LB      ZA    FRAG     MASS         X           Y           Z
   0 C     6.0000    0    12.011   36.611769   77.446672  107.322222
   1 H     1.0000    0     1.008   35.880967   78.807277  105.954302
   2 H     1.0000    0     1.008   36.124709   77.645170  109.314850
   3 C     6.0000    0    12.011   38.040631   75.528826  106.488362
   4 C     6.0000    0    12.011   38.735781   75.286816  103.700568
   5 O     8.0000    0    15.999   37.900490   76.930409  102.211987
   6 O     8.0000    0    15.999   40.104112   73.441308  103.079295
   7 O     8.0000    0    15.999   38.843559   73.630674  108.080140
   8 C     6.0000    0    12.011   41.225966   73.872557  109.517483
   9 H     1.0000    0     1.008   41.198320   72.203053  110.750486
  10 C     6.0000    0    12.011   41.049940   76.285965  110.972153
  11 H     1.0000    0     1.008   39.838394   76.373286  112.640402
  12 C     6.0000    0    12.011   41.924851   78.450293  109.946899
  13 C     6.0000    0    12.011   43.512541   78.357899  107.673839
  14 H     1.0000    0     1.008   44.073575   80.166345  106.858912
  15 C     6.0000    0    12.011   44.284782   76.157492  106.663296
  16 H     1.0000    0     1.008   45.538628   76.125549  105.020439
  17 C     6.0000    0    12.011   43.542990   73.644727  107.761651
  18 H     1.0000    0     1.008   42.940570   72.419701  106.192591
  19 O     8.0000    0    15.999   45.670116   72.612623  109.054402
  20 H     1.0000    0     1.008   45.666853   70.789321  108.854992
  21 C     6.0000    0    12.011   41.009413   80.989219  110.942910
  22 O     8.0000    0    15.999   41.654834   82.946856  109.752374
  23 O     8.0000    0    15.999   39.513250   80.973653  112.786044

--------------------------------
INTERNAL COORDINATES (ANGSTROEM)
--------------------------------
 C      0   0   0     0.000000000000     0.00000000     0.00000000
 H      1   0   0     1.091763441454     0.00000000     0.00000000
 H      1   2   0     1.090566887989   119.59323241     0.00000000
 C      1   2   3     1.340302822187   118.74473389   178.32251959
 C      4   1   2     1.525792664838   121.19021209     2.43118464
 O      5   4   1     1.253935964596   117.65726836   359.24461070
 O      5   4   1     1.259420734490   117.13530404   179.37334341
 O      4   1   2     1.378039996154   121.64336370   185.56923399
 C      8   4   1     1.477942412018   120.96143465   271.85943854
 H      9   8   4     1.098384051667   102.98477715   173.18463489
 C      9   8   4     1.494079293369   106.61866959    54.72863125
 H     11   9   8     1.092020265160   119.29331322    74.66318110
 C     11   9   8     1.349238755347   119.80344244   268.81928364
 C     13  11   9     1.468034951337   119.84042008   347.07401709
 H     14  13  11     1.090842054429   116.77317687   176.41689056
 C     14  13  11     1.344916538296   121.90546602   355.17990168
 H     16  14  13     1.093763023992   120.91331406   182.84712793
 C     16  14  13     1.503331486480   122.18937151     1.04068377
 H     18  16  14     1.100580034183   107.75417292   133.95928956
 O     18  16  14     1.425944526781   108.55070870   254.73536777
 H     20  18  16     0.970604997289   109.09814279   215.02807142
 C     13  11   9     1.522358508065   120.04914341   159.53840362
 O     22  13  11     1.259651194067   117.79849881   187.74008655
 O     22  13  11     1.256268407797   117.61671204     2.68281243

---------------------------
INTERNAL COORDINATES (A.U.)
---------------------------
 C      0   0   0     0.000000000000     0.00000000     0.00000000
 H      1   0   0     2.063133907375     0.00000000     0.00000000
 H      1   2   0     2.060872749023   119.59323241     0.00000000
 C      1   2   3     2.532805270454   118.74473389   178.32251959
 C      4   1   2     2.883330273690   121.19021209     2.43118464
 O      5   4   1     2.369595562560   117.65726836   359.24461070
 O      5   4   1     2.379960275568   117.13530404   179.37334341
 O      4   1   2     2.604118194322   121.64336370   185.56923399
 C      8   4   1     2.792906400421   120.96143465   271.85943854
 H      9   8   4     2.075645047517   102.98477715   173.18463489
 C      9   8   4     2.823400686830   106.61866959    54.72863125
 H     11   9   8     2.063619233844   119.29331322    74.66318110
 C     11   9   8     2.549691736879   119.80344244   268.81928364
 C     13  11   9     2.774184013051   119.84042008   347.07401709
 H     14  13  11     2.061392738234   116.77317687   176.41689056
 C     14  13  11     2.541523930360   121.90546602   355.17990168
 H     16  14  13     2.066912570755   120.91331406   182.84712793
 C     16  14  13     2.840884797948   122.18937151     1.04068377
 H     18  16  14     2.079794853067   107.75417292   133.95928956
 O     18  16  14     2.694644637780   108.55070870   254.73536777
 H     20  18  16     1.834177629091   109.09814279   215.02807142
 C     13  11   9     2.876840657888   120.04914341   159.53840362
 O     22  13  11     2.380395781053   117.79849881   187.74008655
 O     22  13  11     2.374003241433   117.61671204     2.68281243

---------------------
BASIS SET INFORMATION
---------------------
There are 3 groups of distinct atoms

 Group   1 Type C   : 7s4p1d contracted to 3s2p1d pattern {511/31/1}
 Group   2 Type H   : 4s1p contracted to 2s1p pattern {31/1}
 Group   3 Type O   : 7s4p1d contracted to 3s2p1d pattern {511/31/1}

Atom   0C    basis set group =>   1
Atom   1H    basis set group =>   2
Atom   2H    basis set group =>   2
Atom   3C    basis set group =>   1
Atom   4C    basis set group =>   1
Atom   5O    basis set group =>   3
Atom   6O    basis set group =>   3
Atom   7O    basis set group =>   3
Atom   8C    basis set group =>   1
Atom   9H    basis set group =>   2
Atom  10C    basis set group =>   1
Atom  11H    basis set group =>   2
Atom  12C    basis set group =>   1
Atom  13C    basis set group =>   1
Atom  14H    basis set group =>   2
Atom  15C    basis set group =>   1
Atom  16H    basis set group =>   2
Atom  17C    basis set group =>   1
Atom  18H    basis set group =>   2
Atom  19O    basis set group =>   3
Atom  20H    basis set group =>   2
Atom  21C    basis set group =>   1
Atom  22O    basis set group =>   3
Atom  23O    basis set group =>   3
---------------------------------
AUXILIARY/J BASIS SET INFORMATION
---------------------------------
There are 3 groups of distinct atoms

 Group   1 Type C   : 12s5p4d2f1g contracted to 6s4p3d1f1g pattern {711111/2111/211/2/1}
 Group   2 Type H   : 5s2p1d contracted to 3s1p1d pattern {311/2/1}
 Group   3 Type O   : 12s5p4d2f1g contracted to 6s4p3d1f1g pattern {711111/2111/211/2/1}

Atom   0C    basis set group =>   1
Atom   1H    basis set group =>   2
Atom   2H    basis set group =>   2
Atom   3C    basis set group =>   1
Atom   4C    basis set group =>   1
Atom   5O    basis set group =>   3
Atom   6O    basis set group =>   3
Atom   7O    basis set group =>   3
Atom   8C    basis set group =>   1
Atom   9H    basis set group =>   2
Atom  10C    basis set group =>   1
Atom  11H    basis set group =>   2
Atom  12C    basis set group =>   1
Atom  13C    basis set group =>   1
Atom  14H    basis set group =>   2
Atom  15C    basis set group =>   1
Atom  16H    basis set group =>   2
Atom  17C    basis set group =>   1
Atom  18H    basis set group =>   2
Atom  19O    basis set group =>   3
Atom  20H    basis set group =>   2
Atom  21C    basis set group =>   1
Atom  22O    basis set group =>   3
Atom  23O    basis set group =>   3


           ************************************************************
           *        Program running with 8 parallel MPI-processes     *
           *              working on a common directory               *
           ************************************************************
------------------------------------------------------------------------------
                             ORCA STARTUP CALCULATIONS
                           -- RI-GTO INTEGRALS CHOSEN --
------------------------------------------------------------------------------
------------------------------------------------------------------------------
                   ___                                                        
                  /   \      - P O W E R E D   B Y -                         
                 /     \                                                     
                 |  |  |   _    _      __       _____    __    __             
                 |  |  |  | |  | |    /  \     |  _  \  |  |  /  |          
                  \  \/   | |  | |   /    \    | | | |  |  | /  /          
                 / \  \   | |__| |  /  /\  \   | |_| |  |  |/  /          
                |  |  |   |  __  | /  /__\  \  |    /   |      \           
                |  |  |   | |  | | |   __   |  |    \   |  |\   \          
                \     /   | |  | | |  |  |  |  | |\  \  |  | \   \       
                 \___/    |_|  |_| |__|  |__|  |_| \__\ |__|  \__/        
                                                                              
                      - O R C A' S   B I G   F R I E N D -                    
                                      &                                       
                       - I N T E G R A L  F E E D E R -                       
                                                                              
 v1 FN, 2020, v2 2021, v3 2022-2024                                           
------------------------------------------------------------------------------


----------------------
SHARK INTEGRAL PACKAGE
----------------------

Number of atoms                             ...     24
Number of basis functions                   ...    264
Number of shells                            ...    120
Maximum angular momentum                    ...      2
Integral batch strategy                     ... SHARK/LIBINT Hybrid
RI-J (if used) integral strategy            ... SPLIT-RIJ (Revised 2003 algorithm where possible)
Printlevel                                  ...      1
Contraction scheme used                     ... SEGMENTED contraction
Prescreening option                         ... SCHWARTZ
   Thresh                                   ... 1.000e-10
   Tcut                                     ... 1.000e-11
   Tpresel                                  ... 1.000e-11 
Coulomb Range Separation                    ... NOT USED
Exchange Range Separation                   ... NOT USED
Multipole approximations                    ... NOT USED
Finite Nucleus Model                        ... NOT USED
CABS basis                                  ... NOT available
Auxiliary Coulomb fitting basis             ... AVAILABLE
   # of basis functions in Aux-J            ...    872
   # of shells in Aux-J                     ...    280
   Maximum angular momentum in Aux-J        ...      4
Auxiliary J/K fitting basis                 ... NOT available
Auxiliary Correlation fitting basis         ... NOT available
Auxiliary 'external' fitting basis          ... NOT available

Checking pre-screening integrals            ... done (  0.0 sec) Dimension = 120
Check shell pair data                       ... done (  0.0 sec)
Shell pair information
Shell pair cut-off parameter TPreSel        ...   1.0e-11
Total number of shell pairs                 ...      7260
Shell pairs after pre-screening             ...      6258
Total number of primitive shell pairs       ...     27260
Primitive shell pairs kept                  ...     15525
          la=0 lb=0:   1775 shell pairs
          la=1 lb=0:   2252 shell pairs
          la=1 lb=1:    747 shell pairs
          la=2 lb=0:    832 shell pairs
          la=2 lb=1:    548 shell pairs
          la=2 lb=2:    104 shell pairs

Calculating one electron integrals          ... done (  0.0 sec)
Calculating RI/J V-Matrix + Cholesky decomp.... done (  0.4 sec)
Calculating Nuclear repulsion               ... done (  0.0 sec) ENN=   1118.531609957280 Eh

Diagonalization of the overlap matrix:
Smallest eigenvalue                        ... 5.331e-04
Time for diagonalization                   ...    0.018 sec
Threshold for overlap eigenvalues          ... 1.000e-07
Number of eigenvalues below threshold      ... 0
Time for construction of square roots      ...    0.027 sec
Total time needed                          ...    0.070 sec

-------------------
DFT GRID GENERATION
-------------------

General Integration Accuracy     IntAcc      ... 4.388
Radial Grid Type                 RadialGrid  ... OptM3 with GC (2021)
Angular Grid (max. ang.)         AngularGrid ... 4 (Lebedev-302)
Angular grid pruning method      GridPruning ... 4 (adaptive)
Weight generation scheme         WeightScheme... mBecke (2022)
Basis function cutoff            BFCut       ... 1.0000e-10
Integration weight cutoff        WCut        ... 1.0000e-14
Partially contracted basis set               ... off
Rotationally invariant grid construction     ... off
Angular grids for H and He will be reduced by one unit

Total number of grid points                  ...   121631
Total number of batches                      ...     1911
Average number of points per batch           ...       63
Average number of grid points per atom       ...     5068

--------------------
COSX GRID GENERATION
--------------------

GRIDX 1
-------
General Integration Accuracy     IntAcc      ... 3.816
Radial Grid Type                 RadialGrid  ... OptM3 with GC (2021)
Angular Grid (max. ang.)         AngularGrid ... 1 (Lebedev-50)
Angular grid pruning method      GridPruning ... 4 (adaptive)
Weight generation scheme         WeightScheme... mBecke (2022)
Basis function cutoff            BFCut       ... 1.0000e-10
Integration weight cutoff        WCut        ... 1.0000e-14
Partially contracted basis set               ... on
Rotationally invariant grid construction     ... off
Angular grids for H and He will be reduced by one unit

Total number of grid points                  ...    15391
Total number of batches                      ...      135
Average number of points per batch           ...      114
Average number of grid points per atom       ...      641
UseSFitting                                  ... on

GRIDX 2
-------
General Integration Accuracy     IntAcc      ... 4.020
Radial Grid Type                 RadialGrid  ... OptM3 with GC (2021)
Angular Grid (max. ang.)         AngularGrid ... 2 (Lebedev-110)
Angular grid pruning method      GridPruning ... 4 (adaptive)
Weight generation scheme         WeightScheme... mBecke (2022)
Basis function cutoff            BFCut       ... 1.0000e-10
Integration weight cutoff        WCut        ... 1.0000e-14
Partially contracted basis set               ... on
Rotationally invariant grid construction     ... off
Angular grids for H and He will be reduced by one unit

Total number of grid points                  ...    34402
Total number of batches                      ...      279
Average number of points per batch           ...      123
Average number of grid points per atom       ...     1433
UseSFitting                                  ... on

GRIDX 3
-------
General Integration Accuracy     IntAcc      ... 4.338
Radial Grid Type                 RadialGrid  ... OptM3 with GC (2021)
Angular Grid (max. ang.)         AngularGrid ... 3 (Lebedev-194)
Angular grid pruning method      GridPruning ... 4 (adaptive)
Weight generation scheme         WeightScheme... mBecke (2022)
Basis function cutoff            BFCut       ... 1.0000e-10
Integration weight cutoff        WCut        ... 1.0000e-14
Partially contracted basis set               ... on
Rotationally invariant grid construction     ... off
Angular grids for H and He will be reduced by one unit

Total number of grid points                  ...    75578
Total number of batches                      ...      602
Average number of points per batch           ...      125
Average number of grid points per atom       ...     3149
UseSFitting                                  ... on
Initializing property integral containers    ... done (  0.0 sec)

SHARK setup successfully completed in   5.4 seconds

Maximum memory used throughout the entire STARTUP-calculation: 33.8 MB


           ************************************************************
           *        Program running with 8 parallel MPI-processes     *
           *              working on a common directory               *
           ************************************************************
-------------------------------------------------------------------------------
                                 ORCA GUESS
                   Start orbitals & Density for SCF / CASSCF
-------------------------------------------------------------------------------

------------
SCF SETTINGS
------------
Hamiltonian:
 Density Functional     Method          .... DFT(GTOs)
 Exchange Functional    Exchange        .... B88
   X-Alpha parameter    XAlpha          ....  0.666667
   Becke's b parameter  XBeta           ....  0.004200
 Correlation Functional Correlation     .... LYP
 LDA part of GGA corr.  LDAOpt          .... VWN-5
 Gradients option       PostSCFGGA      .... off
 Hybrid DFT is turned on
   Fraction HF Exchange ScalHFX         ....  0.200000
   Scaling of DF-GGA-X  ScalDFX         ....  0.720000
   Scaling of DF-GGA-C  ScalDFC         ....  0.810000
   Scaling of DF-LDA-C  ScalLDAC        ....  1.000000
   Perturbative correction              ....  0.000000
   NL short-range parameter             ....  4.800000
 RI-approximation to the Coulomb term is turned on
   Number of AuxJ basis functions       .... 872
   RIJ-COSX (HFX calculated with COS-X)).... on


General Settings:
 Integral files         IntName         .... polf_R_bare
 Hartree-Fock type      HFTyp           .... RHF
 Total Charge           Charge          ....   -2
 Multiplicity           Mult            ....    1
 Number of Electrons    NEL             ....  118
 Basis Dimension        Dim             ....  264
 Nuclear Repulsion      ENuc            ....   1118.5316099573 Eh

Convergence Acceleration:
 AO-DIIS                CNVDIIS         .... on
   Start iteration      DIISMaxIt       ....    12
   Startup error        DIISStart       ....  0.200000
   # of expansion vecs  DIISMaxEq       ....     5
   Bias factor          DIISBfac        ....   1.050
   Max. coefficient     DIISMaxC        ....  10.000
 MO-DIIS                CNVKDIIS        .... off
 Trust-Rad. Augm. Hess. CNVTRAH         .... auto
   Auto Start mean grad. ratio tolernc. ....  1.125000
   Auto Start start iteration           ....    50
   Auto Start num. interpolation iter.  ....    10
   Max. Number of Micro iterations      ....    24
   Max. Number of Macro iterations      .... Maxiter - #DIIS iter
   Number of Davidson start vectors     ....     2
   Converg. threshold    (grad. norm)   ....   5.000e-05
   Grad. Scal. Fac. for Micro threshold ....   0.100
   Minimum threshold for Micro iter.    ....   1.000e-02
   NR start threshold (gradient norm)   ....   1.000e-04
   Initial trust radius                 ....   0.400
   Minimum AH scaling param. (alpha)    ....   1.000
   Maximum AH scaling param. (alpha)    .... 1000.000
   Quad. conv. algorithm                .... NR
   White noise on init. David. guess    .... on
   Maximum white noise                  ....   0.010
   Pseudo random numbers                .... off
   Inactive MOs                         .... canonical
   Orbital update algorithm             .... Taylor
   Preconditioner                       .... Diag
   Full preconditioner red. dimension   ....   250
 SOSCF                  CNVSOSCF        .... on
   Start iteration      SOSCFMaxIt      ....   150
   Startup grad/error   SOSCFStart      ....  0.003300
   Hessian update       SOSCFHessUp     .... L-BFGS
 Level Shifting         CNVShift        .... on
   Level shift para.    LevelShift      ....    0.2500
   Turn off err/grad.   ShiftErr        ....    0.0010
 Zerner damping         CNVZerner       .... off
 Static damping         CNVDamp         .... on
   Fraction old density DampFac         ....    0.7000
   Max. Damping (<1)    DampMax         ....    0.9800
   Min. Damping (>=0)   DampMin         ....    0.0000
   Turn off err/grad.   DampErr         ....    0.1000

SCF Procedure:
 Maximum # iterations   MaxIter         ....   300
 SCF integral mode      SCFMode         .... Direct
   Integral package                     .... SHARK and LIBINT hybrid scheme
 Reset frequency        DirectResetFreq ....    20
 Integral Threshold     Thresh          ....  1.000e-10 Eh
 Primitive CutOff       TCut            ....  1.000e-11 Eh

Convergence Tolerance:
 Convergence Check Mode ConvCheckMode   .... Total+1el-Energy
 Convergence forced     ConvForced      .... 0
 Energy Change          TolE            ....  1.000e-06 Eh
 1-El. energy change                    ....  1.000e-03 Eh
 Orbital Gradient       TolG            ....  5.000e-05
 Orbital Rotation angle TolX            ....  5.000e-05
 DIIS Error             TolErr          ....  1.000e-06

------------------------------
INITIAL GUESS: MODEL POTENTIAL
------------------------------
Loading Hartree-Fock densities                     ... done
Calculating cut-offs                               ... done
Initializing the effective Hamiltonian             ... done
Setting up the integral package (SHARK)            ... done
Starting the Coulomb interaction                   ... done (   0.3 sec)
Making the grid                                    ... done (   0.6 sec)
Mapping shells                                     ... done
Starting the XC term evaluation                    ... done (   0.1 sec)
  promolecular density results
     # of electrons  =    115.996882393
     EX              =   -102.839217776
     EC              =     -4.058776685
     EX+EC           =   -106.897994461
Transforming the Hamiltonian                       ... done (   0.0 sec)
Diagonalizing the Hamiltonian                      ... done (   0.0 sec)
Back transforming the eigenvectors                 ... done (   0.0 sec)
Now organizing SCF variables                       ... done
                      ------------------
                      INITIAL GUESS DONE (   1.2 sec)
                      ------------------
             **** ENERGY FILE WAS UPDATED (polf_R_bare.en.tmp) ****
Finished Guess after   2.3 sec
Maximum memory used throughout the entire GUESS-calculation: 19.9 MB


           ************************************************************
           *        Program running with 8 parallel MPI-processes     *
           *              working on a common directory               *
           ************************************************************

-------------------------------------------------------------------------------------------
                                      ORCA LEAN-SCF
                              memory conserving SCF solver
-------------------------------------------------------------------------------------------

--------------------
CPCM SOLVATION MODEL
--------------------
CPCM parameters:
  Epsilon                                         ...       4.0000
  Refrac                                          ...       1.3300
  Rsolv                                           ...       1.3000
  Surface type                                    ... GAUSSIAN VDW
  Discretization scheme                           ... Constant charge density
    Threshold for H atoms                         ...       5.0000 (charges/Ang^2)
    Threshold for non-H atoms                     ...       5.0000 (charges/Ang^2)
  Epsilon function type                           ...         CPCM
Solvent:                                          ... CUSTOM
Radii:
  Scheme                                          ... Element-dependent radii
  Radius for C  used is    3.8550 Bohr (=   2.0400 Ang.)
  Radius for H  used is    2.4944 Bohr (=   1.3200 Ang.)
  Radius for O  used is    3.4469 Bohr (=   1.8240 Ang.)
Calculating surface                               ...        done! (  0.0s)
Cavity surface points                             ...         2096
Cavity Volume                                     ...    1688.9442
Cavity Surface-area                               ...     856.8559
Calculating surface distance matrix               ...        done! (  0.1s)
Performing Cholesky decomposition & store         ...        done! (  0.9s)
Overall time for CPCM initialization              ...                 1.0s

----------------------------------------D-I-I-S--------------------------------------------
Iteration    Energy (Eh)           Delta-E    RMSDP     MaxDP     DIISErr   Damp  Time(sec)
-------------------------------------------------------------------------------------------
               ***  Starting incremental Fock matrix formation  ***
    1    -835.7291938380637930     0.00e+00  4.50e-03  1.74e-01  2.97e-01  0.700   5.0
    2    -836.0045744864225981    -2.75e-01  3.15e-03  1.32e-01  1.27e-01  0.700   3.4
                               ***Turning on AO-DIIS***
    3    -836.1064648161866444    -1.02e-01  1.22e-03  3.63e-02  3.54e-02  0.700   3.3
    4    -836.1702405203552644    -6.38e-02  1.86e-03  4.79e-02  1.67e-02  0.000   3.3
    5    -836.3119994354990467    -1.42e-01  4.54e-04  1.78e-02  5.63e-03  0.000   3.2
                              *** Initializing SOSCF ***
---------------------------------------S-O-S-C-F--------------------------------------
Iteration    Energy (Eh)           Delta-E    RMSDP     MaxDP     MaxGrad    Time(sec)
--------------------------------------------------------------------------------------
    6    -836.3126412534545580    -6.42e-04  1.38e-04  5.60e-03  1.24e-03     2.9
               *** Restarting incremental Fock matrix formation ***
    7    -836.3126428085361113    -1.56e-06  9.33e-05  2.76e-03  2.37e-04     4.7
    8    -836.3126421388788003     6.70e-07  3.29e-05  9.69e-04  6.84e-04     3.7
                 **** Energy Check signals convergence ****

               *****************************************************
               *                     SUCCESS                       *
               *           SCF CONVERGED AFTER   8 CYCLES          *
               *****************************************************

Recomputing exchange energy using gridx3       ... done (    5.741 sec)
Old exchange energy                            :    -20.893851457 Eh
New exchange energy                            :    -20.893841099 Eh
Exchange energy change after final integration :      0.000010358 Eh
Total energy after final integration           :   -836.312631781 Eh
             **** ENERGY FILE WAS UPDATED (polf_R_bare.en.tmp) ****

----------------
TOTAL SCF ENERGY
----------------

Total Energy       :       -836.31263178097186 Eh          -22757.22367 eV

Components:
Nuclear Repulsion  :       1118.53160995727967 Eh           30436.79248 eV
Electronic Energy  :      -1954.61819967194037 Eh          -53187.86523 eV
One Electron Energy:      -3402.81053106668924 Eh          -92595.18200 eV
Two Electron Energy:       1448.19233139474886 Eh           39407.31677 eV
CPCM Dielectric    :         -0.22605242421814 Eh              -6.15120 eV

Virial components:
Potential Energy   :      -1665.77617089594696 Eh          -45328.07404 eV
Kinetic Energy     :        829.46353911497511 Eh           22570.85038 eV
Virial Ratio       :          2.00825725585636

DFT components:
N(Alpha)           :       59.000047896688 electrons
N(Beta)            :       59.000047896688 electrons
N(Total)           :      118.000095793376 electrons
E(X)               :      -83.149563673605 Eh       
E(C)               :       -4.848457030193 Eh       
E(XC)              :      -87.998020703798 Eh       

CPCM Solvation Model Properties:
Surface-charge          :          1.98249187601670
Corrected charge        :          2.00000000000000
Outlying charge corr.   :          0.00001471306655 Eh               0.00040 eV
Free-energy (cav+disp)  :  This term is not implemented in the current solvation scheme

---------------
SCF CONVERGENCE
---------------

  Last Energy change         ...   -6.6966e-07  Tolerance :   1.0000e-06
  Last MAX-Density change    ...    9.6949e-04  Tolerance :   1.0000e-05
  Last RMS-Density change    ...    3.2936e-05  Tolerance :   1.0000e-06
  Last DIIS Error            ...    1.2415e-03  Tolerance :   1.0000e-06
  Last Orbital Gradient      ...    6.8424e-04  Tolerance :   5.0000e-05
  Last Orbital Rotation      ...    1.1950e-03  Tolerance :   5.0000e-05


----------------
ORBITAL ENERGIES
----------------

  NO   OCC          E(Eh)            E(eV) 
   0   2.0000     -19.069013      -518.8942 
   1   2.0000     -19.061986      -518.7030 
   2   2.0000     -18.970193      -516.2052 
   3   2.0000     -18.969160      -516.1771 
   4   2.0000     -18.967083      -516.1206 
   5   2.0000     -18.966637      -516.1084 
   6   2.0000     -10.168893      -276.7096 
   7   2.0000     -10.168456      -276.6978 
   8   2.0000     -10.166959      -276.6570 
   9   2.0000     -10.159861      -276.4639 
  10   2.0000     -10.143768      -276.0260 
  11   2.0000     -10.112190      -275.1667 
  12   2.0000     -10.111474      -275.1472 
  13   2.0000     -10.105340      -274.9803 
  14   2.0000     -10.103094      -274.9192 
  15   2.0000     -10.096307      -274.7345 
  16   2.0000      -0.951898       -25.9025 
  17   2.0000      -0.940231       -25.5850 
  18   2.0000      -0.908802       -24.7298 
  19   2.0000      -0.904795       -24.6207 
  20   2.0000      -0.815479       -22.1903 
  21   2.0000      -0.814854       -22.1733 
  22   2.0000      -0.749935       -20.4068 
  23   2.0000      -0.680798       -18.5255 
  24   2.0000      -0.662070       -18.0158 
  25   2.0000      -0.634004       -17.2521 
  26   2.0000      -0.553605       -15.0644 
  27   2.0000      -0.524648       -14.2764 
  28   2.0000      -0.504239       -13.7210 
  29   2.0000      -0.466679       -12.6990 
  30   2.0000      -0.451587       -12.2883 
  31   2.0000      -0.426160       -11.5964 
  32   2.0000      -0.408484       -11.1154 
  33   2.0000      -0.393478       -10.7071 
  34   2.0000      -0.373817       -10.1721 
  35   2.0000      -0.365660        -9.9501 
  36   2.0000      -0.352430        -9.5901 
  37   2.0000      -0.350767        -9.5449 
  38   2.0000      -0.340601        -9.2682 
  39   2.0000      -0.322268        -8.7693 
  40   2.0000      -0.310583        -8.4514 
  41   2.0000      -0.306211        -8.3324 
  42   2.0000      -0.301020        -8.1912 
  43   2.0000      -0.299648        -8.1538 
  44   2.0000      -0.295481        -8.0404 
  45   2.0000      -0.275679        -7.5016 
  46   2.0000      -0.270275        -7.3545 
  47   2.0000      -0.254270        -6.9190 
  48   2.0000      -0.239972        -6.5300 
  49   2.0000      -0.223782        -6.0894 
  50   2.0000      -0.196274        -5.3409 
  51   2.0000      -0.167722        -4.5640 
  52   2.0000      -0.155531        -4.2322 
  53   2.0000      -0.148325        -4.0361 
  54   2.0000      -0.147612        -4.0167 
  55   2.0000      -0.143902        -3.9158 
  56   2.0000      -0.142718        -3.8836 
  57   2.0000      -0.128393        -3.4938 
  58   2.0000      -0.126484        -3.4418 
  59   0.0000       0.024640         0.6705 
  60   0.0000       0.071165         1.9365 
  61   0.0000       0.106139         2.8882 
  62   0.0000       0.129567         3.5257 
  63   0.0000       0.153203         4.1689 
  64   0.0000       0.163468         4.4482 
  65   0.0000       0.180107         4.9010 
  66   0.0000       0.192056         5.2261 
  67   0.0000       0.202283         5.5044 
  68   0.0000       0.215967         5.8768 
  69   0.0000       0.230699         6.2776 
*Only the first 10 virtual orbitals were printed.

                    ********************************
                    * MULLIKEN POPULATION ANALYSIS *
                    ********************************

-----------------------
MULLIKEN ATOMIC CHARGES
-----------------------
   0 C :   -0.014191
   1 H :   -0.008890
   2 H :   -0.007855
   3 C :    0.021031
   4 C :    0.069312
   5 O :   -0.423523
   6 O :   -0.427591
   7 O :   -0.386981
   8 C :    0.233084
   9 H :   -0.040913
  10 C :   -0.095235
  11 H :   -0.036992
  12 C :   -0.030505
  13 C :    0.009132
  14 H :   -0.043748
  15 C :   -0.052171
  16 H :   -0.027701
  17 C :    0.247403
  18 H :   -0.013516
  19 O :   -0.346801
  20 H :    0.177302
  21 C :    0.056773
  22 O :   -0.425779
  23 O :   -0.431644
Sum of atomic charges:   -2.0000000

--------------------------------
MULLIKEN REDUCED ORBITAL CHARGES
--------------------------------
  0 C s       :     3.101165  s :     3.101165
      pz      :     0.859792  p :     2.888504
      px      :     1.016325
      py      :     1.012387
      dz2     :     0.006069  d :     0.024522
      dxz     :     0.003590
      dyz     :     0.006193
      dx2y2   :     0.004587
      dxy     :     0.004083

  1 H s       :     0.984463  s :     0.984463
      pz      :     0.010102  p :     0.024427
      px      :     0.005742
      py      :     0.008583

  2 H s       :     0.984286  s :     0.984286
      pz      :     0.014096  p :     0.023569
      px      :     0.005119
      py      :     0.004354

  3 C s       :     3.156533  s :     3.156533
      pz      :     0.951579  p :     2.753810
      px      :     0.947156
      py      :     0.855075
      dz2     :     0.017189  d :     0.068626
      dxz     :     0.009475
      dyz     :     0.018708
      dx2y2   :     0.012320
      dxy     :     0.010935

  4 C s       :     3.036759  s :     3.036759
      pz      :     0.968013  p :     2.754664
      px      :     0.870879
      py      :     0.915772
      dz2     :     0.033013  d :     0.139265
      dxz     :     0.020051
      dyz     :     0.031319
      dx2y2   :     0.030089
      dxy     :     0.024792

  5 O s       :     3.707497  s :     3.707497
      pz      :     1.620602  p :     4.702023
      px      :     1.578512
      py      :     1.502908
      dz2     :     0.002225  d :     0.014004
      dxz     :     0.002442
      dyz     :     0.004496
      dx2y2   :     0.002529
      dxy     :     0.002313

  6 O s       :     3.728192  s :     3.728192
      pz      :     1.767390  p :     4.685853
      px      :     1.462922
      py      :     1.455541
      dz2     :     0.001710  d :     0.013546
      dxz     :     0.001401
      dyz     :     0.002422
      dx2y2   :     0.003672
      dxy     :     0.004342

  7 O s       :     3.744238  s :     3.744238
      pz      :     1.569912  p :     4.628576
      px      :     1.472005
      py      :     1.586658
      dz2     :     0.001862  d :     0.014167
      dxz     :     0.002339
      dyz     :     0.003734
      dx2y2   :     0.003771
      dxy     :     0.002462

  8 C s       :     2.995938  s :     2.995938
      pz      :     0.928918  p :     2.707807
      px      :     0.784253
      py      :     0.994636
      dz2     :     0.007228  d :     0.063172
      dxz     :     0.017369
      dyz     :     0.013064
      dx2y2   :     0.017199
      dxy     :     0.008312

  9 H s       :     1.020771  s :     1.020771
      pz      :     0.007130  p :     0.020142
      px      :     0.002519
      py      :     0.010494

 10 C s       :     3.231123  s :     3.231123
      pz      :     0.873213  p :     2.831268
      px      :     0.961308
      py      :     0.996747
      dz2     :     0.005356  d :     0.032844
      dxz     :     0.004380
      dyz     :     0.009787
      dx2y2   :     0.007824
      dxy     :     0.005497

 11 H s       :     1.013858  s :     1.013858
      pz      :     0.011128  p :     0.023134
      px      :     0.008301
      py      :     0.003704

 12 C s       :     3.160961  s :     3.160961
      pz      :     0.932611  p :     2.830034
      px      :     0.936535
      py      :     0.960889
      dz2     :     0.007977  d :     0.039510
      dxz     :     0.005809
      dyz     :     0.009649
      dx2y2   :     0.008225
      dxy     :     0.007849

 13 C s       :     3.214145  s :     3.214145
      pz      :     0.967475  p :     2.741909
      px      :     0.961611
      py      :     0.812824
      dz2     :     0.007239  d :     0.034814
      dxz     :     0.004917
      dyz     :     0.009150
      dx2y2   :     0.006887
      dxy     :     0.006621

 14 H s       :     1.020591  s :     1.020591
      pz      :     0.005192  p :     0.023157
      px      :     0.004707
      py      :     0.013257

 15 C s       :     3.182631  s :     3.182631
      pz      :     0.896917  p :     2.835969
      px      :     0.974794
      py      :     0.964258
      dz2     :     0.005295  d :     0.033572
      dxz     :     0.004527
      dyz     :     0.008998
      dx2y2   :     0.008092
      dxy     :     0.006661

 16 H s       :     1.005026  s :     1.005026
      pz      :     0.011050  p :     0.022675
      px      :     0.008358
      py      :     0.003267

 17 C s       :     2.923185  s :     2.923185
      pz      :     0.947928  p :     2.761664
      px      :     0.801561
      py      :     1.012175
      dz2     :     0.008505  d :     0.067748
      dxz     :     0.017906
      dyz     :     0.012426
      dx2y2   :     0.015089
      dxy     :     0.013822

 18 H s       :     0.990303  s :     0.990303
      pz      :     0.011562  p :     0.023212
      px      :     0.005145
      py      :     0.006505

 19 O s       :     3.734847  s :     3.734847
      pz      :     1.768587  p :     4.599893
      px      :     1.582247
      py      :     1.249059
      dz2     :     0.001908  d :     0.012060
      dxz     :     0.002869
      dyz     :     0.001214
      dx2y2   :     0.004710
      dxy     :     0.001359

 20 H s       :     0.755959  s :     0.755959
      pz      :     0.017143  p :     0.066739
      px      :     0.014773
      py      :     0.034823

 21 C s       :     3.031487  s :     3.031487
      pz      :     0.918407  p :     2.773210
      px      :     0.891367
      py      :     0.963435
      dz2     :     0.032590  d :     0.138530
      dxz     :     0.020241
      dyz     :     0.034267
      dx2y2   :     0.024910
      dxy     :     0.026522

 22 O s       :     3.717899  s :     3.717899
      pz      :     1.578270  p :     4.694185
      px      :     1.613671
      py      :     1.502244
      dz2     :     0.001988  d :     0.013695
      dxz     :     0.001024
      dyz     :     0.004484
      dx2y2   :     0.003027
      dxy     :     0.003171

 23 O s       :     3.715521  s :     3.715521
      pz      :     1.446315  p :     4.702292
      px      :     1.467426
      py      :     1.788551
      dz2     :     0.004027  d :     0.013831
      dxz     :     0.005054
      dyz     :     0.001677
      dx2y2   :     0.001910
      dxy     :     0.001163



                     *******************************
                     * LOEWDIN POPULATION ANALYSIS *
                     *******************************

----------------------
LOEWDIN ATOMIC CHARGES
----------------------
   0 C :   -0.086785
   1 H :    0.016294
   2 H :    0.011611
   3 C :   -0.015395
   4 C :   -0.057838
   5 O :   -0.397686
   6 O :   -0.391592
   7 O :   -0.162779
   8 C :    0.080687
   9 H :    0.012557
  10 C :   -0.041224
  11 H :    0.008418
  12 C :   -0.071161
  13 C :   -0.029727
  14 H :    0.015227
  15 C :   -0.040520
  16 H :    0.014970
  17 C :    0.048327
  18 H :    0.010099
  19 O :   -0.162243
  20 H :    0.083207
  21 C :   -0.044027
  22 O :   -0.397087
  23 O :   -0.403335

-------------------------------
LOEWDIN REDUCED ORBITAL CHARGES
-------------------------------
  0 C s       :     2.892891  s :     2.892891
      pz      :     1.037800  p :     3.126952
      px      :     1.031990
      py      :     1.057162
      dz2     :     0.016932  d :     0.066942
      dxz     :     0.010303
      dyz     :     0.018085
      dx2y2   :     0.009613
      dxy     :     0.012009

  1 H s       :     0.911503  s :     0.911503
      pz      :     0.029470  p :     0.072203
      px      :     0.017536
      py      :     0.025198

  2 H s       :     0.917820  s :     0.917820
      pz      :     0.041567  p :     0.070568
      px      :     0.015788
      py      :     0.013214

  3 C s       :     2.898639  s :     2.898639
      pz      :     1.003336  p :     2.952776
      px      :     0.983393
      py      :     0.966047
      dz2     :     0.043737  d :     0.163980
      dxz     :     0.021373
      dyz     :     0.044453
      dx2y2   :     0.027046
      dxy     :     0.027371

  4 C s       :     2.862534  s :     2.862534
      pz      :     1.010490  p :     2.870957
      px      :     0.896168
      py      :     0.964298
      dz2     :     0.082292  d :     0.324347
      dxz     :     0.045271
      dyz     :     0.073321
      dx2y2   :     0.062337
      dxy     :     0.061126

  5 O s       :     3.566157  s :     3.566157
      pz      :     1.655966  p :     4.806510
      px      :     1.590453
      py      :     1.560091
      dz2     :     0.003566  d :     0.025018
      dxz     :     0.003915
      dyz     :     0.009271
      dx2y2   :     0.003932
      dxy     :     0.004334

  6 O s       :     3.567569  s :     3.567569
      pz      :     1.772412  p :     4.799559
      px      :     1.504463
      py      :     1.522683
      dz2     :     0.003178  d :     0.024464
      dxz     :     0.002559
      dyz     :     0.004360
      dx2y2   :     0.005154
      dxy     :     0.009213

  7 O s       :     3.463764  s :     3.463764
      pz      :     1.581196  p :     4.672119
      px      :     1.485425
      py      :     1.605499
      dz2     :     0.003440  d :     0.026896
      dxz     :     0.005162
      dyz     :     0.007089
      dx2y2   :     0.007014
      dxy     :     0.004191

  8 C s       :     2.863541  s :     2.863541
      pz      :     0.976630  p :     2.909549
      px      :     0.872872
      py      :     1.060047
      dz2     :     0.013656  d :     0.146223
      dxz     :     0.040850
      dyz     :     0.033515
      dx2y2   :     0.042318
      dxy     :     0.015884

  9 H s       :     0.923341  s :     0.923341
      pz      :     0.023244  p :     0.064102
      px      :     0.009133
      py      :     0.031725

 10 C s       :     2.880156  s :     2.880156
      pz      :     1.024552  p :     3.073850
      px      :     0.996544
      py      :     1.052754
      dz2     :     0.013692  d :     0.087218
      dxz     :     0.011521
      dyz     :     0.026946
      dx2y2   :     0.021547
      dxy     :     0.013511

 11 H s       :     0.918217  s :     0.918217
      pz      :     0.034180  p :     0.073365
      px      :     0.025733
      py      :     0.013452

 12 C s       :     2.892549  s :     2.892549
      pz      :     1.010564  p :     3.073949
      px      :     0.976379
      py      :     1.087006
      dz2     :     0.020812  d :     0.104663
      dxz     :     0.015331
      dyz     :     0.025520
      dx2y2   :     0.022539
      dxy     :     0.020461

 13 C s       :     2.870039  s :     2.870039
      pz      :     1.012848  p :     3.068188
      px      :     0.988692
      py      :     1.066649
      dz2     :     0.018711  d :     0.091499
      dxz     :     0.012635
      dyz     :     0.024726
      dx2y2   :     0.019139
      dxy     :     0.016288

 14 H s       :     0.914105  s :     0.914105
      pz      :     0.016632  p :     0.070667
      px      :     0.015155
      py      :     0.038881

 15 C s       :     2.880159  s :     2.880159
      pz      :     1.015073  p :     3.073483
      px      :     0.996412
      py      :     1.061998
      dz2     :     0.013263  d :     0.086878
      dxz     :     0.011292
      dyz     :     0.023643
      dx2y2   :     0.021933
      dxy     :     0.016746

 16 H s       :     0.916476  s :     0.916476
      pz      :     0.032118  p :     0.068553
      px      :     0.024826
      py      :     0.011610

 17 C s       :     2.845573  s :     2.845573
      pz      :     1.008548  p :     2.949945
      px      :     0.910142
      py      :     1.031255
      dz2     :     0.017570  d :     0.156155
      dxz     :     0.043918
      dyz     :     0.030246
      dx2y2   :     0.036203
      dxy     :     0.028219

 18 H s       :     0.914428  s :     0.914428
      pz      :     0.037193  p :     0.075473
      px      :     0.016587
      py      :     0.021694

 19 O s       :     3.452764  s :     3.452764
      pz      :     1.761574  p :     4.686526
      px      :     1.592192
      py      :     1.332760
      dz2     :     0.003541  d :     0.022954
      dxz     :     0.004603
      dyz     :     0.001885
      dx2y2   :     0.010296
      dxy     :     0.002628

 20 H s       :     0.738703  s :     0.738703
      pz      :     0.047075  p :     0.178090
      px      :     0.040145
      py      :     0.090870

 21 C s       :     2.855468  s :     2.855468
      pz      :     0.952194  p :     2.867182
      px      :     0.909671
      py      :     1.005316
      dz2     :     0.069611  d :     0.321376
      dxz     :     0.049246
      dyz     :     0.084377
      dx2y2   :     0.057886
      dxy     :     0.060257

 22 O s       :     3.570924  s :     3.570924
      pz      :     1.611995  p :     4.801675
      px      :     1.620785
      py      :     1.568895
      dz2     :     0.003032  d :     0.024487
      dxz     :     0.001909
      dyz     :     0.008671
      dx2y2   :     0.005981
      dxy     :     0.004894

 23 O s       :     3.567300  s :     3.567300
      pz      :     1.503483  p :     4.811277
      px      :     1.512438
      py      :     1.795355
      dz2     :     0.006126  d :     0.024758
      dxz     :     0.010864
      dyz     :     0.002762
      dx2y2   :     0.003124
      dxy     :     0.001883



                      *****************************
                      * MAYER POPULATION ANALYSIS *
                      *****************************

  NA   - Mulliken gross atomic population
  ZA   - Total nuclear charge
  QA   - Mulliken gross atomic charge
  VA   - Mayer's total valence
  BVA  - Mayer's bonded valence
  FA   - Mayer's free valence

  ATOM       NA         ZA         QA         VA         BVA        FA
  0 C      6.0142     6.0000    -0.0142     3.8931     3.8931    -0.0000
  1 H      1.0089     1.0000    -0.0089     1.0206     1.0206    -0.0000
  2 H      1.0079     1.0000    -0.0079     1.0043     1.0043    -0.0000
  3 C      5.9790     6.0000     0.0210     3.9003     3.9003    -0.0000
  4 C      5.9307     6.0000     0.0693     4.5320     4.5320     0.0000
  5 O      8.4235     8.0000    -0.4235     2.0775     2.0775     0.0000
  6 O      8.4276     8.0000    -0.4276     2.0564     2.0564     0.0000
  7 O      8.3870     8.0000    -0.3870     2.0761     2.0761     0.0000
  8 C      5.7669     6.0000     0.2331     3.8622     3.8622     0.0000
  9 H      1.0409     1.0000    -0.0409     1.0006     1.0006     0.0000
 10 C      6.0952     6.0000    -0.0952     3.8873     3.8873     0.0000
 11 H      1.0370     1.0000    -0.0370     1.0333     1.0333    -0.0000
 12 C      6.0305     6.0000    -0.0305     3.6647     3.6647    -0.0000
 13 C      5.9909     6.0000     0.0091     3.9017     3.9017     0.0000
 14 H      1.0437     1.0000    -0.0437     1.0285     1.0285     0.0000
 15 C      6.0522     6.0000    -0.0522     3.8625     3.8625     0.0000
 16 H      1.0277     1.0000    -0.0277     0.9877     0.9877    -0.0000
 17 C      5.7526     6.0000     0.2474     3.8658     3.8658     0.0000
 18 H      1.0135     1.0000    -0.0135     1.0714     1.0714     0.0000
 19 O      8.3468     8.0000    -0.3468     2.0435     2.0435    -0.0000
 20 H      0.8227     1.0000     0.1773     1.0091     1.0091    -0.0000
 21 C      5.9432     6.0000     0.0568     4.5786     4.5786     0.0000
 22 O      8.4258     8.0000    -0.4258     2.0680     2.0680    -0.0000
 23 O      8.4316     8.0000    -0.4316     2.0587     2.0587     0.0000

  Mayer bond orders larger than 0.100000
B(  0-C ,  1-H ) :   0.9161 B(  0-C ,  2-H ) :   0.9197 B(  0-C ,  3-C ) :   1.9393 
B(  3-C ,  4-C ) :   0.8386 B(  3-C ,  7-O ) :   1.0408 B(  4-C ,  5-O ) :   1.8863 
B(  4-C ,  6-O ) :   1.7923 B(  5-O ,  6-O ) :   0.1165 B(  6-O , 18-H ) :   0.1032 
B(  7-O ,  8-C ) :   0.9203 B(  8-C ,  9-H ) :   0.9058 B(  8-C , 10-C ) :   0.9854 
B(  8-C , 17-C ) :   0.9618 B( 10-C , 11-H ) :   0.9424 B( 10-C , 12-C ) :   1.7659 
B( 12-C , 13-C ) :   1.0751 B( 12-C , 21-C ) :   0.8437 B( 13-C , 14-H ) :   0.9732 
B( 13-C , 15-C ) :   1.7778 B( 15-C , 16-H ) :   0.9645 B( 15-C , 17-C ) :   0.9657 
B( 17-C , 18-H ) :   0.8819 B( 17-C , 19-O ) :   1.0371 B( 19-O , 20-H ) :   0.9724 
B( 21-C , 22-O ) :   1.8715 B( 21-C , 23-O ) :   1.8654 B( 22-O , 23-O ) :   0.1140 


-------
TIMINGS
-------

Total SCF time: 0 days 0 hours 0 min 38 sec 

Total time                  ....      38.501 sec
Sum of individual times     ....      37.493 sec  ( 97.4%)

SCF preparation             ....       2.419 sec  (  6.3%)
Fock matrix formation       ....      32.149 sec  ( 83.5%)
  Startup                   ....       0.244 sec  (  0.8% of F)
  Split-RI-J                ....       2.672 sec  (  8.3% of F)
  Chain of spheres X        ....      18.987 sec  ( 59.1% of F)
  XC integration            ....       5.618 sec  ( 17.5% of F)
    XC Preparation          ....       0.000 sec  (  0.0% of XC)
    Basis function eval.    ....       1.354 sec  ( 24.1% of XC)
    Density eval.           ....       0.837 sec  ( 14.9% of XC)
    XC-Functional eval.     ....       0.219 sec  (  3.9% of XC)
    XC-Potential eval.      ....       0.987 sec  ( 17.6% of XC)
  CPCM terms                ....       3.374 sec  ( 10.5% of F)
Diagonalization             ....       0.000 sec  (  0.0%)
Density matrix formation    ....       0.552 sec  (  1.4%)
Total Energy calculation    ....       0.269 sec  (  0.7%)
Population analysis         ....       0.152 sec  (  0.4%)
Orbital Transformation      ....       0.281 sec  (  0.7%)
Orbital Orthonormalization  ....       0.000 sec  (  0.0%)
DIIS solution               ....       1.380 sec  (  3.6%)
SOSCF solution              ....       0.291 sec  (  0.8%)
Finished LeanSCF after  38.8 sec

Maximum memory used throughout the entire LEANSCF-calculation: 31.1 MB


-------------------------------------------------------------------------------
                          DFT DISPERSION CORRECTION                            
                                                                               
                              DFTD3 V3.1  Rev 1                                
                          USING Becke-Johnson damping                          
-------------------------------------------------------------------------------
The B3LYP functional is recognized
Active option DFTDOPT                   ...         4   

molecular C6(AA) [au] = 6928.786757 


            DFT-D V3
 parameters
 s6 scaling factor         :     1.0000 
 a1 scaling factor         :     0.3981 
 s8 scaling factor         :     1.9889 
 a2 scaling factor         :     4.4211 
 ad hoc parameters k1-k3   :    16.0000     1.3333    -4.0000 

 Edisp/kcal,au: -33.411684536342  -0.053244902831 
 E6   /kcal   : -15.647845248 
 E8   /kcal   : -17.763839288 
 % E8         :  53.166547975 

-------------------------   ----------------
Dispersion correction           -0.053244903
-------------------------   ----------------


-------------------------   --------------------
FINAL SINGLE POINT ENERGY      -836.365876683803
-------------------------   --------------------



           ************************************************************
           *        Program running with 8 parallel MPI-processes     *
           *              working on a common directory               *
           ************************************************************

------------------------------------------------------------------------------
                              ORCA PROPERTY CALCULATIONS
------------------------------------------------------------------------------

GBWName                                 ... polf_R_bare.gbw
Number of atoms                         ...     24
Number of basis functions               ...    264
Max core memory                         ...   3000 MB

Electric properties:
Dipole moment                           ... YES
Quadrupole moment                       ...  NO
Static polarizability (Dipole/Dipole)   ...  NO
Static polarizability (Dipole/Quad.)    ...  NO
Static polarizability (Quad./Quad.)     ...  NO
Static polarizability (Velocity)        ...  NO

Atomic electric properties:
Dipole moment                           ...  NO
Quadrupole moment                       ...  NO
Static polarizability                   ...  NO

Choice of electric origin               ... Center of mass
Position of electric origin             ...    40.846256    76.630677   107.843484

General magnetic properties:
Magnetizability                         ...  NO

EPR properties:
g-Tensor (aka g-matrix)                 ...  NO
Zero-Field splitting spin-orbit         ...  NO
Zero-field splitting spin-spin          ...  NO
Hyperfine couplings                     ...  NO (   0 nuclei)
Quadrupole couplings                    ...  NO (   0 nuclei)
Contact density                         ...  NO (   0 nuclei)

NMR properties:
Chemical shifts                         ...  NO (   0 nuclei)
Spin-rotation constants                 ...  NO (   0 nuclei)
Spin-spin couplings                     ...  NO (   0 nuclei,    0 pairs)

Choice of magnetic origin               ... GIAO
Position of magnetic origin             ...     0.000000     0.000000     0.000000

Properties with geometric perturbations:
SCF Hessian                             ...  NO
IR spectrum                             ...  NO
VCD spectrum                            ...  NO
X-ray spectroscopy properties:
SCF XES/XAS/RIXS spectra                ...  NO


-------------
DIPOLE MOMENT
-------------

Method             : SCF
Type of density    : Electron Density
Multiplicity       :   1
Irrep              :   0
Energy             :  -836.3126317809718557 Eh
Relativity type    : 
Basis              : AO
                                X                 Y                 Z
Electronic contribution:     -0.316999676       0.427509637      -0.041736301
Nuclear contribution   :      2.219201252      -4.221843304       1.393098155
                        -----------------------------------------
Total Dipole Moment    :      1.902201576      -3.794333667       1.351361854
                        -----------------------------------------
Magnitude (a.u.)       :      4.454381851
Magnitude (Debye)      :     11.322138880



--------------------
Rotational spectrum 
--------------------
 
Rotational constants in cm-1:             0.023208             0.016273             0.012591 
Rotational constants in MHz :           695.743474           487.844883           377.473733 

Dipole components along the rotational axes: 
x,y,z [a.u.] :    -1.629638    -3.861488     1.508214 
x,y,z [Debye]:    -4.142211    -9.815122     3.833576 

 

Dipole moment calculation done in   0.1 sec 

Maximum memory used throughout the entire PROP-calculation: 13.8 MB

--------------------------------
SUGGESTED CITATIONS FOR THIS RUN
--------------------------------

Below you find a list of papers that are relevant to this ORCA run
We neither can nor want to force you to cite these papers, but we appreciate if you do
You receive ORCA, which is the product of decades of hard work by many enthusiastic individuals, for free
The only thing we kindly ask in return is that you cite our papers,
We deeply appreciate it, if you show your appreciation for ORCA by not just citing the generic ORCA reference.

Please note that relegating all ORCA citations to the supporting information does *not* help us.
SI sections are not indexed - citations you put there will not count into any citation statistics
But we need these citations in order to attract the funding resources that allow us to do what we are doing

Therefore, if you are a happy ORCA user, please consider citing a few of the papers listed below in the main body of your paper

In addition to the list printed below, the program has created the file polf_R_bare.bibtex that contains the list in bibtex format
You can import this file easily into all common literature databanks and citation aid programs


List of essential papers. We consider these as the minimum necessary citations

  1. Neese,F.
     Software update: the ORCA program system, version 5.0
     WIRES Comput. Molec. Sci., 2022 12(1)e1606
     doi.org/10.1002/wcms.1606

List of papers to cite with high priority. The work reported in these papers was absolutely
necessary for this run to complete.
Our perspective: the developers of density functionals and basis sets usually get cited in chemistry papers
Good! But without the algorithms to do something with them, the functionals or basis sets would not do anything.
Hence, in our opinion, the algorithm design and method developments papers are equally worthy of getting cited

  1. Neese,F.
     An improvement of the resolution of the identity approximation for the formation of the Coulomb matrix
     J. Comp. Chem., 2003 24(14)1740-1747
     doi.org/10.1002/jcc.10318
  2. Neese,F.; Wennmohs,F.; Hansen,A.; Becker,U.
     Efficient, approximate and parallel Hartree-Fock and hybrid DFT calculations. A 'chain-of-spheres' algorithm for the Hartree-Fock exchange
     Chem. Phys., 2009 356(1-3)98-109
     doi.org/10.1016/j.chemphys.2008.10.036
  3. Garcia-Rates,M.; Neese,F.
     Effect of the Solute Cavity on the Solvation Energy and its Derivatives within the Framework of the Gaussian Charge Scheme
     J. Comput. Chem., 2020 41 922-939
     doi.org/10.1002/jcc.26139
  4. Helmich-Paris,B.; de Souza,B.; Neese,F.; Izsák,R.
     An improved chain of spheres for exchange algorithm
     J. Chem. Phys., 2021 155 104109
     doi.org/doi: 10.1063/5.0058766.
  5. Neese,F.
     The SHARK Integral Generation and Digestion System
     J. Comp. Chem., 2022  1-16
     doi.org/10.1002/jcc.26942
  6. Grimme,S.; Antony,J.; Ehrlich,S.; Krieg,H.
     A consistent and accurate ab initio parametrization of density functional dispersion correction (DFT-D) for the 94 elements H-Pu
     J. Chem. Phys., 2010 132 154104
     doi.org/10.1063/1.3382344
  7. Grimme,S.; Ehrlich,S.; Goerigk,L.
     Effect of the damping function in dispersion corrected density functional theory
     J. Comput. Chem., 2011 32(7)1456-1465
     doi.org/10.1002/jcc.21759

List of suggested additional citations. These are papers that are important in the 'surrounding' of 
of this run, or papers that preceded the highly important papers. If you like your results we are grateful for a citation.

  1. Izsak,R.; Neese,F.
     An overlap fitted chain of spheres exchange method
     J. Chem. Phys., 2011 135 144105
     doi.org/10.1063/1.3646921
  2. Izsak,R.; Hansen,A.; Neese,F.
     The resolution of identity and chain of spheres approximations for the LPNO-CCSD singles Fock term
     Molec. Phys., 2012 110 2413-2417
     doi.org/10.1080/00268976.2012.687466
  3. Neese,F.
     The ORCA program system
     WIRES Comput. Molec. Sci., 2012 2(1)73-78
     doi.org/10.1002/wcms.81
  4. Izsak,R.; Neese,F.; Klopper,W.
     Robust fitting techniques in the chain of spheres approximation to the Fock exchange: The role of the complementary space
     J. Chem. Phys., 2013 139 
     doi.org/10.1063/1.4819264
  5. Neese,F.
     Software update: the ORCA program system, version 4.0
     WIRES Comput. Molec. Sci., 2018 8(1)1-6
     doi.org/10.1002/wcms.1327
  6. Neese,F.; Wennmohs,F.; Becker,U.; Riplinger,C.
     The ORCA quantum chemistry program package
     J. Chem. Phys., 2020 152 Art. No. L224108
     doi.org/10.1063/5.0004608

List of optional additional citations

  1. Neese,F.
     Approximate second-order SCF convergence for spin unrestricted wavefunctions
     Chem. Phys. Lett., 2000 325(1-3)93-98
     doi.org/10.1016/s0009-2614(00)00662-x

Timings for individual modules:

Sum of individual times          ...       52.905 sec (=   0.882 min)
Startup calculation              ...        6.772 sec (=   0.113 min)  12.8 %
SCF iterations                   ...       43.966 sec (=   0.733 min)  83.1 %
Property calculations            ...        2.167 sec (=   0.036 min)   4.1 %
                             ****ORCA TERMINATED NORMALLY****
TOTAL RUN TIME: 0 days 0 hours 1 minutes 0 seconds 680 msec
