
                                 *****************
                                 * O   R   C   A *
                                 *****************

                                            #,                                       
                                            ###                                      
                                            ####                                     
                                            #####                                    
                                            ######                                   
                                           ########,                                 
                                     ,,################,,,,,                         
                               ,,#################################,,                 
                          ,,##########################################,,             
                       ,#########################################, ''#####,          
                    ,#############################################,,   '####,        
                  ,##################################################,,,,####,       
                ,###########''''           ''''###############################       
              ,#####''   ,,,,##########,,,,          '''####'''          '####       
            ,##' ,,,,###########################,,,                        '##       
           ' ,,###''''                  '''############,,,                           
         ,,##''                                '''############,,,,        ,,,,,,###''
      ,#''                                            '''#######################'''  
     '                                                          ''''####''''         
             ,#######,   #######,   ,#######,      ##                                
            ,#'     '#,  ##    ##  ,#'     '#,    #''#        ,####,   ,####,        
            ##       ##  ##   ,#'  ##            #'  '#       #'       #'  '#        
            ##       ##  #######   ##           ,######,      #####,   #    #        
            '#,     ,#'  ##    ##  '#,     ,#' ,#      #,     #,   #   #,  ,#        
             '#######'   ##     ##  '#######'  #'      '#     '####' # '####'        



                #########################################################
                #                        -***-                          #
                #          Department of theory and spectroscopy        #
                #                                                       #
                #                      Frank Neese                      #
                #                                                       #
                #     Directorship, Architecture, Infrastructure        #
                #                    SHARK, DRIVERS                     #
                #        Core code/Algorithms in most modules           #
                #                                                       #
                #        Max Planck Institute fuer Kohlenforschung      #
                #                Kaiser Wilhelm Platz 1                 #
                #                 D-45470 Muelheim/Ruhr                 #
                #                      Germany                          #
                #                                                       #
                #                  All rights reserved                  #
                #                        -***-                          #
                #########################################################


                         Program Version 6.0.1  -  RELEASE   -


 With contributions from (in alphabetic order):
[Max-Planck-Institut fuer Kohlenforschung]                               
  Daniel Aravena         : Magnetic Suceptibility                        
  Michael Atanasov       : Ab Initio Ligand Field Theory (pilot matlab implementation)
  Alexander A. Auer      : GIAO ZORA, VPT2 properties, NMR spectrum      
  Ute Becker             : All parallelization in ORCA, NUMFREQ, NUMCALC 
  Giovanni Bistoni       : ED, misc. LED, open-shell LED, HFLD           
  Martin Brehm           : Molecular dynamics                            
  Dmytro Bykov           : pre 5.0 version of the SCF Hessian            
  Marcos Casanova-Páez   : Triplet and SCS-CIS(D). UHF-(DLPNO)-IP/EA/STEOM-CCSD. UHF-CVS-IP/STEOM-CCSD   
  Vijay G. Chilkuri      : MRCI spin determinant printing, contributions to CSF-ICE 
  Pauline Colinet        : FMM embedding                                 
  Dipayan Datta          : RHF DLPNO-CCSD density                        
  Achintya Kumar Dutta   : EOM-CC, STEOM-CC                              
  Nicolas Foglia         : Exact transition moments, OPA infrastructure, MCD improvements    
  Dmitry Ganyushin       : Spin-Orbit,Spin-Spin,Magnetic field MRCI      
  Miquel Garcia-Rates    : C-PCM and meta-GGA Hessian, CCSD/C-PCM, Gaussian charge scheme 
  Tiago L. C. Gouveia    : GS-ROHF, GS-ROCIS                             
  Yang Guo               : DLPNO-NEVPT2, F12-NEVPT2, CIM, IAO-localization        
  Andreas Hansen         : Spin unrestricted coupled pair/coupled cluster methods 
  Ingolf Harden          : AUTO-CI MPn and infrastructure                
  Benjamin Helmich-Paris : MC-RPA, TRAH-(SCF,CASSCF), AVAS, COSX integrals, SCF dyn. polar. 
  Lee Huntington         : MR-EOM, pCC                                   
  Robert Izsak           : Overlap fitted RIJCOSX, COSX-SCS-MP3, EOM     
  Riya Kayal             : Wick's Theorem for AUTO-CI, AUTO-CI UHF-CCSDT 
  Emily Kempfer          : AUTO-CI, RHF CISDT and CCSDT                  
  Christian Kollmar      : KDIIS, OOCD, Brueckner-CCSD(T), CCSD density, CASPT2, CASPT2-K, improved NEVPT2 
  Axel Koslowski         : Symmetry handling                             
  Simone Kossmann        : meta-GGA functionals, TD-DFT gradient, OOMP2, (MP2 Hessian; deprecated post 5.0) 
  Lucas Lang             : DCDCAS                                        
  Marvin Lechner         : AUTO-CI (C++ implementation), FIC-MRCC        
  Spencer Leger          : CASSCF response                               
  Dagmar Lenk            : GEPOL surface, SMD, ORCA-2-JSON               
  Dimitrios Liakos       : Extrapolation schemes; Compound Job, initial MDCI parallelization 
  Dimitrios Manganas     : Further ROCIS development; embedding schemes. LFT, Crystal Embedding 
  Dimitrios Pantazis     : SARC Basis sets                               
  Anastasios Papadopoulos: AUTO-CI, single reference methods and gradients 
  Taras Petrenko         : pre 6.0 DFT Hessian and TD-DFT gradient, (ASA, deprecated), ECA, 1-Electron XAS/XES, NRVS 
  Peter Pinski           : DLPNO-MP2, DLPNO-MP2 Gradient                 
  Christoph Reimann      : Effective Core Potentials                     
  Marius Retegan         : Local ZFS, SOC                                
  Christoph Riplinger    : Optimizer, TS searches, QM/MM, DLPNO-CCSD(T), (RO)-DLPNO pert. Triples 
  Michael Roemelt        : Original ROCIS implementation                 
  Masaaki Saitow         : Open-shell DLPNO-CCSD energy and density      
  Barbara Sandhoefer     : DKH picture change effects                    
  Kantharuban Sivalingam : CASSCF convergence/infrastructure, NEVPT2 and variants, FIC-MRCI 
  Bernardo de Souza      : ESD, SOC TD-DFT                               
  Georgi L. Stoychev     : AutoAux, RI-MP2 NMR, DLPNO-MP2 response, X2C  
  Van Anh Tran           : RI-MP2 g-tensors                              
  Willem Van den Heuvel  : Paramagnetic NMR                              
  Zikuan Wang            : NOTCH, Electric field optimization            
  Frank Wennmohs         : Technical directorship and infrastructure     
  Hang Xu                : AUTO-CI-Response properties                   
                                                                         
[FACCTs GmbH]                                                            
  Markus Bursch, Miquel Garcia-Rates, Christoph Riplinger, Bernardo de Souza, Georgi L. Stoychev 
                                                                 
  APM, Basis sets (HGBS, AHGBS, def-TZVP (Ac-Lr), def2-XVPD (La-Lu)), CI-OPT, improved COSX, DLPNO-Multilevel,           
  DOCKER, DRACO, updates on ESD, GOAT, IRC, LR-CPCM, MBIS, meta-GGA TD-DFT gradient, ML-optimized integration grids, 
  MM, NACMEs, nearIR, NEB, NEB-TS, NL-DFT gradient (VV10), 2- and 3-layer-ONIOM, interface openCOSMO-RS, QMMM,   
  Crystal-QMMM, SF, symmetry and pop. for TD-DFT, r2SCAN hybrids, SOLVATOR                                   
                                                                         
[Other institutions]                                                     
  V. Asgeirsson          : NEB                                           
  Christoph Bannwarth    : sTDA-DFT, sTD-DFT, PBEh-3c, B97-3c, D3        
  Sebastian Ehlert       : rSCAN, r2SCAN, r2SCAN-3c, D4, dhf basis sets  
  Marvin Friede          : D4 for Fr, Ra, Ac-Lr                          
  Lars Goerigk           : TD-DFT with DH, B97 family of functionals     
  Stefan Grimme          : VdW corrections, initial TS optimization, DFT functionals, gCP, sTDA/sTD-DF 
  Waldemar Hujo          : DFT-NL                                        
  H. Jonsson             : NEB                                           
  Holger Kruse           : gCP                                           
  Marcel Mueller         : wB97X-3c, vDZP basis set                      
  Hagen Neugebauer       : wr2SCAN                                       
  Tobias Risthaus        : range-separated hybrid DFT                    
  Lukas Wittmann         : regularized MP2, r2SCAN double-hybrids, wr2SCAN        
                                                                         
We gratefully acknowledge several colleagues who have allowed us to      
interface, adapt or use parts of their codes:                            
  Ed Valeev, F. Pavosevic, A. Kumar             : LibInt (2-el integral package), F12 methods 
  Garnet Chan, S. Sharma, J. Yang, R. Olivares  : DMRG                   
  Ulf Ekstrom                                   : XCFun DFT Library      
  Mihaly Kallay                                 : mrcc  (arbitrary order and MRCC methods)
  Frank Weinhold                                : gennbo (NPA and NBO analysis)           
  Simon Mueller                                 : openCOSMO-RS                            
  Christopher J. Cramer and Donald G. Truhlar   : smd solvation model                     
  S Lehtola, MJT Oliveira, MAL Marques          : LibXC Library                           
  Liviu Ungur et al                             : ANISO software                          


 Your calculation uses the libint2 library for the computation of 2-el integrals
 For citations please refer to: http://libint.valeyev.net

 Your ORCA version has been built with support for libXC version: 6.2.2
 For citations please refer to: https://libxc.gitlab.io

 This ORCA versions uses:
   CBLAS   interface :  Fast vector & matrix operations
   LAPACKE interface :  Fast linear algebra routines
   SCALAPACK package :  Parallel linear algebra routines
   Shared memory     :  Shared parallel matrices
   BLAS/LAPACK       :  OpenBLAS 0.3.27  USE64BITINT DYNAMIC_ARCH NO_AFFINITY SkylakeX SINGLE_THREADED
        Core in use  :  SkylakeX
   Copyright (c) 2011-2014, The OpenBLAS Project


NOTE: MaxCore=3000 MB was set to SCF,MP2,MDCI,CIPSI,MRCI and CIS
      => If you want to overwrite this, your respective input block should be placed after the MaxCore statement


***************************************
The coordinates will be read from file: frame_00820_CHA2.pdb
***************************************


Your calculation utilizes the atom-pairwise dispersion correction
with the Becke-Johnson damping scheme (D3BJ)


================================================================================

----- Orbital basis set information -----
Your calculation utilizes the basis: def2-SVP
   F. Weigend and R. Ahlrichs, Phys. Chem. Chem. Phys. 7, 3297 (2005).

----- AuxJ basis set information -----
Your calculation utilizes the auxiliary basis: def2/J
   F. Weigend, Phys. Chem. Chem. Phys. 8, 1057 (2006).

================================================================================
                                        WARNINGS
                       Please study these warnings very carefully!
================================================================================


================================================================================
                                       INPUT FILE
================================================================================
NAME = dft_sp.inp
|  1> ! QMMM B3LYP D3BJ def2-SVP def2/J RIJCOSX EnGrad
|  2> %maxcore 3000
|  3> %pal nprocs 1 end
|  4> %qmmm
|  5>   QMAtoms {6207:6230} end
|  6>   ORCAFFFilename "complex_solvated.ORCAFF.prms"
|  7> end
|  8> *pdbfile -2 1 frame_00820_CHA2.pdb
|  9> 
| 10>                          ****END OF INPUT****
================================================================================

------------------------------------------------------------------------------

                             **************************
                             *           QMMM         *
                             **************************


------------------------------------------------------------------------------




Multiscale model                       ... QM/MM
Coupling Scheme                        ... additive
Embedding Scheme                       ... electrostatic
PrintLevel                             ... 1
Charge alteration scheme               ... Charge shifting
Scaling factor for CS scheme           ... 0.06
Gradient projection scheme             ... Lever rule
Point charges in QM calc. from MM atoms... 55656
              from charge shift scheme ... 0
Printing trajectories, xyz and allxyz files:
        QMMMRegion                     ... YES
        activeRegion                   ... NO
        activeRegionExt                ... NO
        qmRegion                       ... YES
Parameter files:
        ORCA Forcefield Filename       ... complex_solvated.ORCAFF.prms
        QM-LA bond distances Filename  ... dft_sp.H_DIST.prms.tmp
Forcefield type                        ... AMBER
Size of different subsystems (in atoms):
Size of QMMM System                    ... 55680
Size of MM Subsystem                   ... 55656
Size of QM Subsystem                   ... 24
Number of link atoms                   ... 0
Size of QM Subsystem plus link atoms   ... 24
Size of region for optimizer           ... 55680
        optimized atoms = activeRegion ... 55680
        fixed atoms (distance cutoff)  ... 0 ( 0.0)
Composition of different systems (atoms start counting at 0):
QM Subsystem                           ... 6207 6208 6209 6210 6211 6212 6213 6214 6215 6216 
                                           6217 6218 6219 6220 6221 6222 6223 6224 6225 6226 
                                           6227 6228 6229 6230 
Active atoms                           ... All atoms 
Constrain bonds and angle of MM waters ... NO

                     *******************************
                     * Energy+Gradient Calculation *
                     *******************************

                    ************************************                      
                    *          QM/MM SP Energy         *                      
                    ************************************                      



----------------------------------------------------------------------------
                                     MM                                         
------------------------------------------------------------------------------


Force Field is read from file          ... complex_solvated.ORCAFF.prms
Forcefield type                        ... AMBER
PrintLevel                             ... 1


Do energy and gradient calculation
Coulomb interaction settings:
   Dielectricity constant              ...        1.000
   1-4 scaling factor                  ...        0.833
   Force Shifting (Coulomb Interaction)... YES
       Coulomb CutOff                  ...       12.000 Ang.
   Force Switching (LJ Interaction)    ... YES
       LJ Inner CutOff                 ...       10.000 Ang.
       LJ Outer CutOff                 ...       12.000 Ang.
Do compute NB interaction for all atoms

-------------------------   ----------
MM Energy contributions:

---------------------------------- Bond Terms ----------------------------------
Bonds                         1.93272385

--------------------------------- Angle Terms ----------------------------------
Angles                        5.32396319

--------------------------- Angle Urey-Bradley Terms ---------------------------
Angles UB                     0.00000000

-------------------------------- Dihedral Terms --------------------------------
Dihedrals                     7.94741610

-------------------------------- Improper Terms --------------------------------
Impropers                     0.00000000

-------------------------- LJ and Coulomb interaction --------------------------

TOTAL TIME LJ + Coul           :....................        13.6966970000 seconds

LJ interaction                34.30155224
Coulomb interaction           -286.17154583
-------------------------   ----------

-------------------------   --------------------
FINAL SINGLE POINT ENERGY (MM)     -236.665890454095
-------------------------   --------------------


Printout of MM Cartesian gradient is suppressed (too many atoms).
Increase Printlevel to at least 2 to see Cartesian gradient.
Total MM SPGRAD time        ....      13.858 sec
------------------------------------------------------------------------------
                                     QM                                       
------------------------------------------------------------------------------
---------------------------------
CARTESIAN COORDINATES (ANGSTROEM)
---------------------------------
  C     60.231000   34.527000   57.281000
  H     60.752000   33.596000   57.497000
  H     60.716000   35.465000   57.018000
  C     58.873000   34.534000   57.259000
  C     58.044000   35.770000   56.884000
  O     58.524000   36.818000   56.519000
  O     56.867000   35.755000   57.172000
  O     58.138000   33.410000   57.534000
  C     57.706000   32.499000   56.447000
  H     57.051000   31.708000   56.834000
  C     59.064000   31.977000   56.039000
  H     59.593000   31.321000   56.727000
  C     59.686000   32.421000   54.906000
  C     59.087000   33.439000   54.129000
  H     59.686000   33.852000   53.320000
  C     57.795000   33.808000   54.272000
  H     57.352000   34.416000   53.487000
  C     56.857000   33.102000   55.199000
  H     56.107000   33.796000   55.599000
  O     56.061000   32.162000   54.502000
  H     55.682000   31.421000   55.006000
  C     61.050000   31.866000   54.574000
  O     61.758000   31.094000   55.238000
  O     61.620000   32.308000   53.587000

----------------------------
CARTESIAN COORDINATES (A.U.)
----------------------------
  NO LB      ZA    FRAG     MASS         X           Y           Z
   0 C     6.0000    0    12.011  113.820095   65.246574  108.245403
   1 H     1.0000    0     1.008  114.804642   63.487239  108.653584
   2 H     1.0000    0     1.008  114.736612   67.019137  107.748405
   3 C     6.0000    0    12.011  111.253847   65.259802  108.203829
   4 C     6.0000    0    12.011  109.687264   67.595504  107.495181
   5 O     8.0000    0    15.999  110.594332   69.575937  106.805431
   6 O     8.0000    0    15.999  107.463056   67.567158  108.039423
   7 O     8.0000    0    15.999  109.864898   63.135750  108.723503
   8 C     6.0000    0    12.011  109.048536   61.414210  106.669371
   9 H     1.0000    0     1.008  107.810766   59.919436  107.400695
  10 C     6.0000    0    12.011  111.614784   60.427773  105.898363
  11 H     1.0000    0     1.008  112.614449   59.188112  107.198494
  12 C     6.0000    0    12.011  112.790194   61.266811  103.757303
  13 C     6.0000    0    12.011  111.658248   63.190552  102.288986
  14 H     1.0000    0     1.008  112.790194   63.971009  100.760197
  15 C     6.0000    0    12.011  109.216722   63.887861  102.559217
  16 H     1.0000    0     1.008  108.379573   65.036815  101.075782
  17 C     6.0000    0    12.011  107.444159   62.553714  104.310993
  18 H     1.0000    0     1.008  106.026864   63.865184  105.066883
  19 O     8.0000    0    15.999  105.939937   60.777372  102.993854
  20 H     1.0000    0     1.008  105.223731   59.377085  103.946276
  21 C     6.0000    0    12.011  115.367780   60.218013  103.129914
  22 O     8.0000    0    15.999  116.705707   58.759144  104.384692
  23 O     8.0000    0    15.999  116.444924   61.053272  101.264754

--------------------------------
INTERNAL COORDINATES (ANGSTROEM)
--------------------------------
 C      0   0   0     0.000000000000     0.00000000     0.00000000
 H      1   0   0     1.088511828140     0.00000000     0.00000000
 H      1   2   0     1.088226998379   124.88034994     0.00000000
 C      1   2   3     1.358196230300   119.09035868   176.20368840
 C      4   1   2     1.534784023894   123.24165209   183.75588022
 O      5   4   1     1.209102559752   123.87281593     3.52929968
 O      5   4   1     1.211815992633   117.16701765   195.53067211
 O      4   1   2     1.370848642265   121.91168919     1.66971216
 C      8   4   1     1.482603790633   120.86139512   267.72793456
 H      9   8   4     1.097485763006   110.99164234   185.36718152
 C      9   8   4     1.510997021837    98.53253063    67.20539916
 H     11   9   8     1.087897513555   118.33163897    69.47185138
 C     11   9   8     1.366641503833   121.37697734   256.41408204
 C     13  11   9     1.413808332130   119.78350453     3.29705310
 H     14  13  11     1.088049171683   116.66005519   171.65307015
 C     14  13  11     1.351249051804   122.92695990   345.16053059
 H     16  14  13     1.087261698029   117.76719411   194.56790154
 C     16  14  13     1.495863964403   122.42969855   355.45721247
 H     18  16  14     1.097331308220   110.85387882   148.69004503
 O     18  16  14     1.415282657281   111.15891199   261.91468524
 H     20  18  16     0.973004624861   118.02062803   156.52171140
 C     13  11   9     1.509551257825   118.30292480   179.19950949
 O     22  13  11     1.240219335440   128.82404551   355.18625310
 O     22  13  11     1.222470040533   117.77167389   182.79426930

---------------------------
INTERNAL COORDINATES (A.U.)
---------------------------
 C      0   0   0     0.000000000000     0.00000000     0.00000000
 H      1   0   0     2.056989248718     0.00000000     0.00000000
 H      1   2   0     2.056450998475   124.88034994     0.00000000
 C      1   2   3     2.566618911390   119.09035868   176.20368840
 C      4   1   2     2.900321479877   123.24165209   183.75588022
 O      5   4   1     2.284872705755   123.87281593     3.52929968
 O      5   4   1     2.290000350781   117.16701765   195.53067211
 O      4   1   2     2.590528504939   121.91168919     1.66971216
 C      8   4   1     2.801715129410   120.86139512   267.72793456
 H      9   8   4     2.073947527958   110.99164234   185.36718152
 C      9   8   4     2.855370560442    98.53253063    67.20539916
 H     11   9   8     2.055828362394   118.33163897    69.47185138
 C     11   9   8     2.582578165495   121.37697734   256.41408204
 C     13  11   9     2.671710553582   119.78350453     3.29705310
 H     14  13  11     2.056114954721   116.66005519   171.65307015
 C     14  13  11     2.553490646629   122.92695990   345.16053059
 H     16  14  13     2.054626845176   117.76719411   194.56790154
 C     16  14  13     2.826773226324   122.42969855   355.45721247
 H     18  16  14     2.073655650713   110.85387882   148.69004503
 O     18  16  14     2.674496624349   111.15891199   261.91468524
 H     20  18  16     1.838712268025   118.02062803   156.52171140
 C     13  11   9     2.852638462405   118.30292480   179.19950949
 O     22  13  11     2.343674889976   128.82404551   355.18625310
 O     22  13  11     2.310133583530   117.77167389   182.79426930

---------------------
BASIS SET INFORMATION
---------------------
There are 3 groups of distinct atoms

 Group   1 Type C   : 7s4p1d contracted to 3s2p1d pattern {511/31/1}
 Group   2 Type H   : 4s1p contracted to 2s1p pattern {31/1}
 Group   3 Type O   : 7s4p1d contracted to 3s2p1d pattern {511/31/1}

Atom   0C    basis set group =>   1
Atom   1H    basis set group =>   2
Atom   2H    basis set group =>   2
Atom   3C    basis set group =>   1
Atom   4C    basis set group =>   1
Atom   5O    basis set group =>   3
Atom   6O    basis set group =>   3
Atom   7O    basis set group =>   3
Atom   8C    basis set group =>   1
Atom   9H    basis set group =>   2
Atom  10C    basis set group =>   1
Atom  11H    basis set group =>   2
Atom  12C    basis set group =>   1
Atom  13C    basis set group =>   1
Atom  14H    basis set group =>   2
Atom  15C    basis set group =>   1
Atom  16H    basis set group =>   2
Atom  17C    basis set group =>   1
Atom  18H    basis set group =>   2
Atom  19O    basis set group =>   3
Atom  20H    basis set group =>   2
Atom  21C    basis set group =>   1
Atom  22O    basis set group =>   3
Atom  23O    basis set group =>   3
---------------------------------
AUXILIARY/J BASIS SET INFORMATION
---------------------------------
There are 3 groups of distinct atoms

 Group   1 Type C   : 12s5p4d2f1g contracted to 6s4p3d1f1g pattern {711111/2111/211/2/1}
 Group   2 Type H   : 5s2p1d contracted to 3s1p1d pattern {311/2/1}
 Group   3 Type O   : 12s5p4d2f1g contracted to 6s4p3d1f1g pattern {711111/2111/211/2/1}

Atom   0C    basis set group =>   1
Atom   1H    basis set group =>   2
Atom   2H    basis set group =>   2
Atom   3C    basis set group =>   1
Atom   4C    basis set group =>   1
Atom   5O    basis set group =>   3
Atom   6O    basis set group =>   3
Atom   7O    basis set group =>   3
Atom   8C    basis set group =>   1
Atom   9H    basis set group =>   2
Atom  10C    basis set group =>   1
Atom  11H    basis set group =>   2
Atom  12C    basis set group =>   1
Atom  13C    basis set group =>   1
Atom  14H    basis set group =>   2
Atom  15C    basis set group =>   1
Atom  16H    basis set group =>   2
Atom  17C    basis set group =>   1
Atom  18H    basis set group =>   2
Atom  19O    basis set group =>   3
Atom  20H    basis set group =>   2
Atom  21C    basis set group =>   1
Atom  22O    basis set group =>   3
Atom  23O    basis set group =>   3
------------------------------------------------------------------------------
                             ORCA STARTUP CALCULATIONS
                           -- RI-GTO INTEGRALS CHOSEN --
------------------------------------------------------------------------------
------------------------------------------------------------------------------
                   ___                                                        
                  /   \      - P O W E R E D   B Y -                         
                 /     \                                                     
                 |  |  |   _    _      __       _____    __    __             
                 |  |  |  | |  | |    /  \     |  _  \  |  |  /  |          
                  \  \/   | |  | |   /    \    | | | |  |  | /  /          
                 / \  \   | |__| |  /  /\  \   | |_| |  |  |/  /          
                |  |  |   |  __  | /  /__\  \  |    /   |      \           
                |  |  |   | |  | | |   __   |  |    \   |  |\   \          
                \     /   | |  | | |  |  |  |  | |\  \  |  | \   \       
                 \___/    |_|  |_| |__|  |__|  |_| \__\ |__|  \__/        
                                                                              
                      - O R C A' S   B I G   F R I E N D -                    
                                      &                                       
                       - I N T E G R A L  F E E D E R -                       
                                                                              
 v1 FN, 2020, v2 2021, v3 2022-2024                                           
------------------------------------------------------------------------------


----------------------
SHARK INTEGRAL PACKAGE
----------------------

Number of atoms                             ...     24
Number of basis functions                   ...    264
Number of shells                            ...    120
Maximum angular momentum                    ...      2
Integral batch strategy                     ... SHARK/LIBINT Hybrid
RI-J (if used) integral strategy            ... SPLIT-RIJ (Revised 2003 algorithm where possible)
Printlevel                                  ...      1
Contraction scheme used                     ... SEGMENTED contraction
Prescreening option                         ... SCHWARTZ
   Thresh                                   ... 2.500e-11
   Tcut                                     ... 2.500e-12
   Tpresel                                  ... 2.500e-12 
Coulomb Range Separation                    ... NOT USED
Exchange Range Separation                   ... NOT USED
Multipole approximations                    ... NOT USED
Finite Nucleus Model                        ... NOT USED
CABS basis                                  ... NOT available
Auxiliary Coulomb fitting basis             ... AVAILABLE
   # of basis functions in Aux-J            ...    872
   # of shells in Aux-J                     ...    280
   Maximum angular momentum in Aux-J        ...      4
Auxiliary J/K fitting basis                 ... NOT available
Auxiliary Correlation fitting basis         ... NOT available
Auxiliary 'external' fitting basis          ... NOT available

Checking pre-screening integrals            ... done (  0.0 sec) Dimension = 120
Check shell pair data                       ... done (  0.0 sec)
Shell pair information
Shell pair cut-off parameter TPreSel        ...   2.5e-12
Total number of shell pairs                 ...      7260
Shell pairs after pre-screening             ...      6285
Total number of primitive shell pairs       ...     27260
Primitive shell pairs kept                  ...     15693
          la=0 lb=0:   1786 shell pairs
          la=1 lb=0:   2264 shell pairs
          la=1 lb=1:    752 shell pairs
          la=2 lb=0:    835 shell pairs
          la=2 lb=1:    545 shell pairs
          la=2 lb=2:    103 shell pairs

Reading point charge file                   ... ok (55656 point charges)
Calculating one electron integrals          ... done ( 11.1 sec)
Calculating RI/J V-Matrix + Cholesky decomp.... done (  0.2 sec)
Calculating Nuclear repulsion               ... (+Point charges) done (  0.0 sec) ENN=   1142.657628057892 Eh

Diagonalization of the overlap matrix:
Smallest eigenvalue                        ... 5.093e-04
Time for diagonalization                   ...    0.007 sec
Threshold for overlap eigenvalues          ... 1.000e-07
Number of eigenvalues below threshold      ... 0
Time for construction of square roots      ...    0.014 sec
Total time needed                          ...    0.032 sec

-------------------
DFT GRID GENERATION
-------------------

General Integration Accuracy     IntAcc      ... 4.388
Radial Grid Type                 RadialGrid  ... OptM3 with GC (2021)
Angular Grid (max. ang.)         AngularGrid ... 4 (Lebedev-302)
Angular grid pruning method      GridPruning ... 4 (adaptive)
Weight generation scheme         WeightScheme... mBecke (2022)
Basis function cutoff            BFCut       ... 1.0000e-11
Integration weight cutoff        WCut        ... 1.0000e-14
Partially contracted basis set               ... off
Rotationally invariant grid construction     ... off
Angular grids for H and He will be reduced by one unit

Total number of grid points                  ...   121701
Total number of batches                      ...     1914
Average number of points per batch           ...       63
Average number of grid points per atom       ...     5071

--------------------
COSX GRID GENERATION
--------------------

GRIDX 1
-------
General Integration Accuracy     IntAcc      ... 3.816
Radial Grid Type                 RadialGrid  ... OptM3 with GC (2021)
Angular Grid (max. ang.)         AngularGrid ... 1 (Lebedev-50)
Angular grid pruning method      GridPruning ... 4 (adaptive)
Weight generation scheme         WeightScheme... mBecke (2022)
Basis function cutoff            BFCut       ... 1.0000e-11
Integration weight cutoff        WCut        ... 1.0000e-14
Partially contracted basis set               ... on
Rotationally invariant grid construction     ... off
Angular grids for H and He will be reduced by one unit

Total number of grid points                  ...    15397
Total number of batches                      ...      134
Average number of points per batch           ...      114
Average number of grid points per atom       ...      642
UseSFitting                                  ... on

GRIDX 2
-------
General Integration Accuracy     IntAcc      ... 4.020
Radial Grid Type                 RadialGrid  ... OptM3 with GC (2021)
Angular Grid (max. ang.)         AngularGrid ... 2 (Lebedev-110)
Angular grid pruning method      GridPruning ... 4 (adaptive)
Weight generation scheme         WeightScheme... mBecke (2022)
Basis function cutoff            BFCut       ... 1.0000e-11
Integration weight cutoff        WCut        ... 1.0000e-14
Partially contracted basis set               ... on
Rotationally invariant grid construction     ... off
Angular grids for H and He will be reduced by one unit

Total number of grid points                  ...    34398
Total number of batches                      ...      281
Average number of points per batch           ...      122
Average number of grid points per atom       ...     1433
UseSFitting                                  ... on

GRIDX 3
-------
General Integration Accuracy     IntAcc      ... 4.338
Radial Grid Type                 RadialGrid  ... OptM3 with GC (2021)
Angular Grid (max. ang.)         AngularGrid ... 3 (Lebedev-194)
Angular grid pruning method      GridPruning ... 4 (adaptive)
Weight generation scheme         WeightScheme... mBecke (2022)
Basis function cutoff            BFCut       ... 1.0000e-11
Integration weight cutoff        WCut        ... 1.0000e-14
Partially contracted basis set               ... on
Rotationally invariant grid construction     ... off
Angular grids for H and He will be reduced by one unit

Total number of grid points                  ...    75631
Total number of batches                      ...      604
Average number of points per batch           ...      125
Average number of grid points per atom       ...     3151
UseSFitting                                  ... on
Initializing property integral containers    ... done (  0.0 sec)

SHARK setup successfully completed in  14.7 seconds

Maximum memory used throughout the entire STARTUP-calculation: 54.5 MB
-------------------------------------------------------------------------------
                                 ORCA GUESS
                   Start orbitals & Density for SCF / CASSCF
-------------------------------------------------------------------------------

------------
SCF SETTINGS
------------
Hamiltonian:
 Density Functional     Method          .... DFT(GTOs)
 Exchange Functional    Exchange        .... B88
   X-Alpha parameter    XAlpha          ....  0.666667
   Becke's b parameter  XBeta           ....  0.004200
 Correlation Functional Correlation     .... LYP
 LDA part of GGA corr.  LDAOpt          .... VWN-5
 Gradients option       PostSCFGGA      .... off
 Hybrid DFT is turned on
   Fraction HF Exchange ScalHFX         ....  0.200000
   Scaling of DF-GGA-X  ScalDFX         ....  0.720000
   Scaling of DF-GGA-C  ScalDFC         ....  0.810000
   Scaling of DF-LDA-C  ScalLDAC        ....  1.000000
   Perturbative correction              ....  0.000000
   NL short-range parameter             ....  4.800000
 RI-approximation to the Coulomb term is turned on
   Number of AuxJ basis functions       .... 872
   RIJ-COSX (HFX calculated with COS-X)).... on


General Settings:
 Integral files         IntName         .... dft_sp
 Hartree-Fock type      HFTyp           .... RHF
 Total Charge           Charge          ....   -2
 Multiplicity           Mult            ....    1
 Number of Electrons    NEL             ....  118
 Basis Dimension        Dim             ....  264
 Nuclear Repulsion      ENuc            ....   1142.6576280579 Eh

Convergence Acceleration:
 AO-DIIS                CNVDIIS         .... on
   Start iteration      DIISMaxIt       ....    12
   Startup error        DIISStart       ....  0.200000
   # of expansion vecs  DIISMaxEq       ....     5
   Bias factor          DIISBfac        ....   1.050
   Max. coefficient     DIISMaxC        ....  10.000
 MO-DIIS                CNVKDIIS        .... off
 Trust-Rad. Augm. Hess. CNVTRAH         .... auto
   Auto Start mean grad. ratio tolernc. ....  1.125000
   Auto Start start iteration           ....    50
   Auto Start num. interpolation iter.  ....    10
   Max. Number of Micro iterations      ....    24
   Max. Number of Macro iterations      .... Maxiter - #DIIS iter
   Number of Davidson start vectors     ....     2
   Converg. threshold    (grad. norm)   ....   1.000e-05
   Grad. Scal. Fac. for Micro threshold ....   0.100
   Minimum threshold for Micro iter.    ....   1.000e-02
   NR start threshold (gradient norm)   ....   1.000e-04
   Initial trust radius                 ....   0.400
   Minimum AH scaling param. (alpha)    ....   1.000
   Maximum AH scaling param. (alpha)    .... 1000.000
   Quad. conv. algorithm                .... NR
   White noise on init. David. guess    .... on
   Maximum white noise                  ....   0.010
   Pseudo random numbers                .... off
   Inactive MOs                         .... canonical
   Orbital update algorithm             .... Taylor
   Preconditioner                       .... Diag
   Full preconditioner red. dimension   ....   250
 SOSCF                  CNVSOSCF        .... on
   Start iteration      SOSCFMaxIt      ....   150
   Startup grad/error   SOSCFStart      ....  0.003300
   Hessian update       SOSCFHessUp     .... L-BFGS
 Level Shifting         CNVShift        .... on
   Level shift para.    LevelShift      ....    0.2500
   Turn off err/grad.   ShiftErr        ....    0.0010
 Zerner damping         CNVZerner       .... off
 Static damping         CNVDamp         .... on
   Fraction old density DampFac         ....    0.7000
   Max. Damping (<1)    DampMax         ....    0.9800
   Min. Damping (>=0)   DampMin         ....    0.0000
   Turn off err/grad.   DampErr         ....    0.1000

SCF Procedure:
 Maximum # iterations   MaxIter         ....   125
 SCF integral mode      SCFMode         .... Direct
   Integral package                     .... SHARK and LIBINT hybrid scheme
 Reset frequency        DirectResetFreq ....    20
 Integral Threshold     Thresh          ....  2.500e-11 Eh
 Primitive CutOff       TCut            ....  2.500e-12 Eh

Convergence Tolerance:
 Convergence Check Mode ConvCheckMode   .... Total+1el-Energy
 Convergence forced     ConvForced      .... 0
 Energy Change          TolE            ....  1.000e-08 Eh
 1-El. energy change                    ....  1.000e-05 Eh
 Orbital Gradient       TolG            ....  1.000e-05
 Orbital Rotation angle TolX            ....  1.000e-05
 DIIS Error             TolErr          ....  5.000e-07

------------------------------
INITIAL GUESS: MODEL POTENTIAL
------------------------------
Loading Hartree-Fock densities                     ... done
Calculating cut-offs                               ... done
Initializing the effective Hamiltonian             ... done
Setting up the integral package (SHARK)            ... done
Starting the Coulomb interaction                   ... done (   0.5 sec)
Making the grid                                    ... done (   0.4 sec)
Mapping shells                                     ... done
Starting the XC term evaluation                    ... done (   0.4 sec)
  promolecular density results
     # of electrons  =    115.999010841
     EX              =   -102.892197845
     EC              =     -4.060623424
     EX+EC           =   -106.952821269
Transforming the Hamiltonian                       ... done (   0.0 sec)
Diagonalizing the Hamiltonian                      ... done (   0.0 sec)
Back transforming the eigenvectors                 ... done (   0.0 sec)
Now organizing SCF variables                       ... done
                      ------------------
                      INITIAL GUESS DONE (   1.4 sec)
                      ------------------
             **** ENERGY FILE WAS UPDATED (dft_sp.en.tmp) ****
Finished Guess after   1.5 sec
Maximum memory used throughout the entire GUESS-calculation: 28.8 MB

-------------------------------------------------------------------------------------------
                                      ORCA LEAN-SCF
                              memory conserving SCF solver
-------------------------------------------------------------------------------------------

----------------------------------------D-I-I-S--------------------------------------------
Iteration    Energy (Eh)           Delta-E    RMSDP     MaxDP     DIISErr   Damp  Time(sec)
-------------------------------------------------------------------------------------------
               ***  Starting incremental Fock matrix formation  ***
    1    -836.0071124844816950     0.00e+00  5.21e-03  2.07e-01  3.39e-01  0.700  13.8
Warning: op=0 Small HOMO/LUMO gap (   0.061) - skipping pre-diagonalization
         Will do a full diagonalization
    2    -836.3502132675705525    -3.43e-01  3.55e-03  1.42e-01  1.46e-01  0.700   7.1
                               ***Turning on AO-DIIS***
    3    -836.4798270551914356    -1.30e-01  1.27e-03  3.10e-02  4.49e-02  0.700   7.0
    4    -836.5581582739905571    -7.83e-02  1.94e-03  4.45e-02  2.15e-02  0.000   6.7
    5    -836.7331461986443628    -1.75e-01  5.45e-04  1.87e-02  7.50e-03  0.000   6.9
                              *** Initializing SOSCF ***
---------------------------------------S-O-S-C-F--------------------------------------
Iteration    Energy (Eh)           Delta-E    RMSDP     MaxDP     MaxGrad    Time(sec)
--------------------------------------------------------------------------------------
    6    -836.7339673313920230    -8.21e-04  1.78e-04  4.86e-03  1.72e-03     6.3
               *** Restarting incremental Fock matrix formation ***
    7    -836.7340250099061905    -5.77e-05  1.45e-04  3.47e-03  4.56e-04    13.7
    8    -836.7340164728057061     8.54e-06  6.64e-05  2.33e-03  9.50e-04    10.4
    9    -836.7340526017410411    -3.61e-05  3.95e-05  1.01e-03  1.59e-04     9.8
   10    -836.7340524069425101     1.95e-07  1.45e-05  4.33e-04  1.57e-04     9.3
   11    -836.7340539096537668    -1.50e-06  1.23e-05  3.58e-04  4.69e-05     8.2
   12    -836.7340539318868196    -2.22e-08  4.84e-06  1.01e-04  3.53e-05     8.4
   13    -836.7340540343270732    -1.02e-07  3.30e-06  7.81e-05  7.89e-06     7.5
   14    -836.7340540250554568     9.27e-09  1.74e-06  3.32e-05  8.12e-06     7.3
                 **** Energy Check signals convergence ****

               *****************************************************
               *                     SUCCESS                       *
               *           SCF CONVERGED AFTER  14 CYCLES          *
               *****************************************************

Recomputing exchange energy using gridx3       ... done (   22.864 sec)
Old exchange energy                            :    -20.923306224 Eh
New exchange energy                            :    -20.923304901 Eh
Exchange energy change after final integration :      0.000001323 Eh
Total energy after final integration           :   -836.734052702 Eh
             **** ENERGY FILE WAS UPDATED (dft_sp.en.tmp) ****

----------------
TOTAL SCF ENERGY
----------------

Total Energy       :       -836.73405270199373 Eh          -22768.69111 eV

Components:
Nuclear Repulsion  :       1142.65762805789177 Eh           31093.29481 eV
Electronic Energy  :      -1979.39168208294723 Eh          -53861.98596 eV
One Electron Energy:      -3418.76168429284917 Eh          -93029.23494 eV
Two Electron Energy:       1439.37000220990194 Eh           39167.24898 eV

Virial components:
Potential Energy   :      -1666.60570424810089 Eh          -45350.64679 eV
Kinetic Energy     :        829.87165154610716 Eh           22581.95568 eV
Virial Ratio       :          2.00826923192653

DFT components:
N(Alpha)           :       59.000103600225 electrons
N(Beta)            :       59.000103600225 electrons
N(Total)           :      118.000207200450 electrons
E(X)               :      -83.242692877401 Eh       
E(C)               :       -4.851952926686 Eh       
E(XC)              :      -88.094645804087 Eh       

---------------
SCF CONVERGENCE
---------------

  Last Energy change         ...   -9.2716e-09  Tolerance :   1.0000e-08
  Last MAX-Density change    ...    3.3232e-05  Tolerance :   1.0000e-07
  Last RMS-Density change    ...    1.7397e-06  Tolerance :   5.0000e-09
  Last DIIS Error            ...    1.7199e-03  Tolerance :   5.0000e-07
  Last Orbital Gradient      ...    8.1180e-06  Tolerance :   1.0000e-05
  Last Orbital Rotation      ...    2.1287e-05  Tolerance :   1.0000e-05


----------------
ORBITAL ENERGIES
----------------

  NO   OCC          E(Eh)            E(eV) 
   0   2.0000     -19.151817      -521.1474 
   1   2.0000     -19.143174      -520.9122 
   2   2.0000     -19.063324      -518.7394 
   3   2.0000     -19.062253      -518.7103 
   4   2.0000     -19.046034      -518.2689 
   5   2.0000     -19.044739      -518.2337 
   6   2.0000     -10.258009      -279.1346 
   7   2.0000     -10.255934      -279.0782 
   8   2.0000     -10.249099      -278.8922 
   9   2.0000     -10.245650      -278.7983 
  10   2.0000     -10.229337      -278.3544 
  11   2.0000     -10.189584      -277.2727 
  12   2.0000     -10.185518      -277.1620 
  13   2.0000     -10.182045      -277.0675 
  14   2.0000     -10.181091      -277.0416 
  15   2.0000     -10.177081      -276.9325 
  16   2.0000      -1.047339       -28.4996 
  17   2.0000      -1.026660       -27.9368 
  18   2.0000      -1.017010       -27.6742 
  19   2.0000      -1.015381       -27.6299 
  20   2.0000      -0.923493       -25.1295 
  21   2.0000      -0.892346       -24.2820 
  22   2.0000      -0.828015       -22.5314 
  23   2.0000      -0.758952       -20.6521 
  24   2.0000      -0.739214       -20.1150 
  25   2.0000      -0.711171       -19.3520 
  26   2.0000      -0.639875       -17.4119 
  27   2.0000      -0.601185       -16.3591 
  28   2.0000      -0.592430       -16.1208 
  29   2.0000      -0.546844       -14.8804 
  30   2.0000      -0.529106       -14.3977 
  31   2.0000      -0.513547       -13.9743 
  32   2.0000      -0.486881       -13.2487 
  33   2.0000      -0.472339       -12.8530 
  34   2.0000      -0.455356       -12.3909 
  35   2.0000      -0.447953       -12.1894 
  36   2.0000      -0.441387       -12.0107 
  37   2.0000      -0.431170       -11.7327 
  38   2.0000      -0.426040       -11.5931 
  39   2.0000      -0.414350       -11.2750 
  40   2.0000      -0.411120       -11.1871 
  41   2.0000      -0.403201       -10.9716 
  42   2.0000      -0.397487       -10.8162 
  43   2.0000      -0.391966       -10.6659 
  44   2.0000      -0.383193       -10.4272 
  45   2.0000      -0.376607       -10.2480 
  46   2.0000      -0.365250        -9.9389 
  47   2.0000      -0.324740        -8.8366 
  48   2.0000      -0.312788        -8.5114 
  49   2.0000      -0.299779        -8.1574 
  50   2.0000      -0.277507        -7.5514 
  51   2.0000      -0.252523        -6.8715 
  52   2.0000      -0.251018        -6.8306 
  53   2.0000      -0.247701        -6.7403 
  54   2.0000      -0.243733        -6.6323 
  55   2.0000      -0.230992        -6.2856 
  56   2.0000      -0.224310        -6.1038 
  57   2.0000      -0.215930        -5.8757 
  58   2.0000      -0.193786        -5.2732 
  59   0.0000      -0.052162        -1.4194 
  60   0.0000      -0.009776        -0.2660 
  61   0.0000       0.031092         0.8461 
  62   0.0000       0.060117         1.6359 
  63   0.0000       0.085089         2.3154 
  64   0.0000       0.096044         2.6135 
  65   0.0000       0.101281         2.7560 
  66   0.0000       0.114799         3.1238 
  67   0.0000       0.129213         3.5161 
  68   0.0000       0.138107         3.7581 
  69   0.0000       0.150752         4.1022 
*Only the first 10 virtual orbitals were printed.

                    ********************************
                    * MULLIKEN POPULATION ANALYSIS *
                    ********************************

-----------------------
MULLIKEN ATOMIC CHARGES
-----------------------
   0 C :    0.037011
   1 H :    0.018231
   2 H :   -0.007355
   3 C :   -0.022071
   4 C :    0.038143
   5 O :   -0.444413
   6 O :   -0.450235
   7 O :   -0.380966
   8 C :    0.198901
   9 H :    0.015749
  10 C :   -0.068865
  11 H :   -0.013986
  12 C :   -0.029817
  13 C :    0.031208
  14 H :   -0.034833
  15 C :   -0.063097
  16 H :   -0.022736
  17 C :    0.269087
  18 H :   -0.022541
  19 O :   -0.376357
  20 H :    0.199297
  21 C :    0.042263
  22 O :   -0.468365
  23 O :   -0.444253
Sum of atomic charges:   -2.0000000

--------------------------------
MULLIKEN REDUCED ORBITAL CHARGES
--------------------------------
  0 C s       :     3.109153  s :     3.109153
      pz      :     0.994019  p :     2.829797
      px      :     0.989388
      py      :     0.846390
      dz2     :     0.001554  d :     0.024040
      dxz     :     0.005507
      dyz     :     0.000788
      dx2y2   :     0.008618
      dxy     :     0.007574

  1 H s       :     0.957874  s :     0.957874
      pz      :     0.005230  p :     0.023894
      px      :     0.006440
      py      :     0.012224

  2 H s       :     0.983132  s :     0.983132
      pz      :     0.005789  p :     0.024223
      px      :     0.006287
      py      :     0.012147

  3 C s       :     3.168264  s :     3.168264
      pz      :     1.011047  p :     2.785785
      px      :     0.897057
      py      :     0.877681
      dz2     :     0.005000  d :     0.068022
      dxz     :     0.010402
      dyz     :     0.007644
      dx2y2   :     0.020847
      dxy     :     0.024129

  4 C s       :     3.020520  s :     3.020520
      pz      :     0.845975  p :     2.791688
      px      :     0.964267
      py      :     0.981447
      dz2     :     0.014231  d :     0.149648
      dxz     :     0.027320
      dyz     :     0.017113
      dx2y2   :     0.042673
      dxy     :     0.048310

  5 O s       :     3.646633  s :     3.646633
      pz      :     1.580083  p :     4.783218
      px      :     1.736070
      py      :     1.467065
      dz2     :     0.001941  d :     0.014562
      dxz     :     0.000981
      dyz     :     0.003933
      dx2y2   :     0.003799
      dxy     :     0.003909

  6 O s       :     3.691513  s :     3.691513
      pz      :     1.565320  p :     4.743788
      px      :     1.390433
      py      :     1.788034
      dz2     :     0.001964  d :     0.014934
      dxz     :     0.004526
      dyz     :     0.000263
      dx2y2   :     0.005373
      dxy     :     0.002808

  7 O s       :     3.742684  s :     3.742684
      pz      :     1.547836  p :     4.623866
      px      :     1.680256
      py      :     1.395774
      dz2     :     0.002764  d :     0.014415
      dxz     :     0.002366
      dyz     :     0.004156
      dx2y2   :     0.002142
      dxy     :     0.002988

  8 C s       :     3.050240  s :     3.050240
      pz      :     0.860576  p :     2.691597
      px      :     0.953681
      py      :     0.877340
      dz2     :     0.010408  d :     0.059262
      dxz     :     0.013541
      dyz     :     0.014178
      dx2y2   :     0.008394
      dxy     :     0.012742

  9 H s       :     0.962715  s :     0.962715
      pz      :     0.004171  p :     0.021535
      px      :     0.007719
      py      :     0.009645

 10 C s       :     3.277178  s :     3.277178
      pz      :     0.952937  p :     2.758818
      px      :     0.911375
      py      :     0.894506
      dz2     :     0.007286  d :     0.032869
      dxz     :     0.008926
      dyz     :     0.006037
      dx2y2   :     0.004746
      dxy     :     0.005874

 11 H s       :     0.991189  s :     0.991189
      pz      :     0.007966  p :     0.022797
      px      :     0.006497
      py      :     0.008333

 12 C s       :     3.131773  s :     3.131773
      pz      :     0.913510  p :     2.857910
      px      :     0.975596
      py      :     0.968804
      dz2     :     0.008761  d :     0.040134
      dxz     :     0.008632
      dyz     :     0.007536
      dx2y2   :     0.007587
      dxy     :     0.007619

 13 C s       :     3.206212  s :     3.206212
      pz      :     0.878513  p :     2.725582
      px      :     0.896508
      py      :     0.950561
      dz2     :     0.005021  d :     0.036998
      dxz     :     0.009719
      dyz     :     0.004876
      dx2y2   :     0.008353
      dxy     :     0.009028

 14 H s       :     1.011372  s :     1.011372
      pz      :     0.010240  p :     0.023462
      px      :     0.007992
      py      :     0.005230

 15 C s       :     3.151093  s :     3.151093
      pz      :     0.942249  p :     2.878705
      px      :     0.968682
      py      :     0.967774
      dz2     :     0.003684  d :     0.033299
      dxz     :     0.010145
      dyz     :     0.004646
      dx2y2   :     0.006651
      dxy     :     0.008173

 16 H s       :     0.999431  s :     0.999431
      pz      :     0.009605  p :     0.023305
      px      :     0.005230
      py      :     0.008470

 17 C s       :     2.947759  s :     2.947759
      pz      :     0.924195  p :     2.715322
      px      :     0.927095
      py      :     0.864032
      dz2     :     0.009129  d :     0.067832
      dxz     :     0.016360
      dyz     :     0.014505
      dx2y2   :     0.009957
      dxy     :     0.017882

 18 H s       :     1.002410  s :     1.002410
      pz      :     0.004936  p :     0.020132
      px      :     0.008029
      py      :     0.007166

 19 O s       :     3.698493  s :     3.698493
      pz      :     1.621702  p :     4.667090
      px      :     1.663102
      py      :     1.382285
      dz2     :     0.001176  d :     0.010774
      dxz     :     0.002574
      dyz     :     0.004085
      dx2y2   :     0.001329
      dxy     :     0.001611

 20 H s       :     0.735696  s :     0.735696
      pz      :     0.017917  p :     0.065007
      px      :     0.019208
      py      :     0.027881

 21 C s       :     3.028802  s :     3.028802
      pz      :     0.927417  p :     2.785749
      px      :     0.974174
      py      :     0.884158
      dz2     :     0.036943  d :     0.143186
      dxz     :     0.032309
      dyz     :     0.026461
      dx2y2   :     0.025191
      dxy     :     0.022282

 22 O s       :     3.678110  s :     3.678110
      pz      :     1.636065  p :     4.776811
      px      :     1.605074
      py      :     1.535672
      dz2     :     0.001957  d :     0.013444
      dxz     :     0.003028
      dyz     :     0.002766
      dx2y2   :     0.002477
      dxy     :     0.003216

 23 O s       :     3.677853  s :     3.677853
      pz      :     1.462064  p :     4.752363
      px      :     1.672831
      py      :     1.617468
      dz2     :     0.004383  d :     0.014036
      dxz     :     0.004060
      dyz     :     0.002945
      dx2y2   :     0.000992
      dxy     :     0.001657



                     *******************************
                     * LOEWDIN POPULATION ANALYSIS *
                     *******************************

----------------------
LOEWDIN ATOMIC CHARGES
----------------------
   0 C :   -0.054202
   1 H :    0.026784
   2 H :    0.021260
   3 C :   -0.024748
   4 C :   -0.101282
   5 O :   -0.421808
   6 O :   -0.404532
   7 O :   -0.154084
   8 C :    0.092316
   9 H :    0.028954
  10 C :    0.012734
  11 H :    0.018902
  12 C :   -0.088954
  13 C :    0.001321
  14 H :    0.022922
  15 C :   -0.055769
  16 H :    0.016682
  17 C :    0.058465
  18 H :    0.005272
  19 O :   -0.179907
  20 H :    0.094764
  21 C :   -0.056055
  22 O :   -0.447846
  23 O :   -0.411189

-------------------------------
LOEWDIN REDUCED ORBITAL CHARGES
-------------------------------
  0 C s       :     2.896719  s :     2.896719
      pz      :     0.987082  p :     3.092704
      px      :     1.070257
      py      :     1.035365
      dz2     :     0.004670  d :     0.064779
      dxz     :     0.011082
      dyz     :     0.001939
      dx2y2   :     0.024685
      dxy     :     0.022403

  1 H s       :     0.901842  s :     0.901842
      pz      :     0.016392  p :     0.071374
      px      :     0.018375
      py      :     0.036607

  2 H s       :     0.907396  s :     0.907396
      pz      :     0.017626  p :     0.071344
      px      :     0.016694
      py      :     0.037024

  3 C s       :     2.898748  s :     2.898748
      pz      :     0.987736  p :     2.964494
      px      :     1.057611
      py      :     0.919147
      dz2     :     0.011966  d :     0.161506
      dxz     :     0.022119
      dyz     :     0.016264
      dx2y2   :     0.052441
      dxy     :     0.058715

  4 C s       :     2.852822  s :     2.852822
      pz      :     0.841616  p :     2.888289
      px      :     1.023364
      py      :     1.023310
      dz2     :     0.031577  d :     0.360170
      dxz     :     0.062680
      dyz     :     0.037378
      dx2y2   :     0.107301
      dxy     :     0.121235

  5 O s       :     3.528598  s :     3.528598
      pz      :     1.571924  p :     4.866406
      px      :     1.753437
      py      :     1.541044
      dz2     :     0.003496  d :     0.026803
      dxz     :     0.001791
      dyz     :     0.006320
      dx2y2   :     0.007513
      dxy     :     0.007684

  6 O s       :     3.534591  s :     3.534591
      pz      :     1.562225  p :     4.842620
      px      :     1.497388
      py      :     1.783007
      dz2     :     0.003698  d :     0.027321
      dxz     :     0.007062
      dyz     :     0.000426
      dx2y2   :     0.010883
      dxy     :     0.005252

  7 O s       :     3.459097  s :     3.459097
      pz      :     1.562195  p :     4.667657
      px      :     1.678960
      py      :     1.426501
      dz2     :     0.004689  d :     0.027330
      dxz     :     0.003874
      dyz     :     0.008314
      dx2y2   :     0.004579
      dxy     :     0.005876

  8 C s       :     2.879523  s :     2.879523
      pz      :     0.915386  p :     2.894002
      px      :     1.046975
      py      :     0.931641
      dz2     :     0.022729  d :     0.134158
      dxz     :     0.031727
      dyz     :     0.031404
      dx2y2   :     0.017799
      dxy     :     0.030499

  9 H s       :     0.903596  s :     0.903596
      pz      :     0.013877  p :     0.067450
      px      :     0.023500
      py      :     0.030073

 10 C s       :     2.890616  s :     2.890616
      pz      :     1.034556  p :     3.011482
      px      :     1.014778
      py      :     0.962148
      dz2     :     0.018332  d :     0.085168
      dxz     :     0.024794
      dyz     :     0.015179
      dx2y2   :     0.012221
      dxy     :     0.014643

 11 H s       :     0.908125  s :     0.908125
      pz      :     0.023662  p :     0.072974
      px      :     0.022641
      py      :     0.026671

 12 C s       :     2.873025  s :     2.873025
      pz      :     1.051595  p :     3.108114
      px      :     1.037586
      py      :     1.018933
      dz2     :     0.023042  d :     0.107816
      dxz     :     0.024519
      dyz     :     0.020433
      dx2y2   :     0.020005
      dxy     :     0.019818

 13 C s       :     2.858266  s :     2.858266
      pz      :     0.991104  p :     3.043004
      px      :     1.067403
      py      :     0.984496
      dz2     :     0.013075  d :     0.097409
      dxz     :     0.025309
      dyz     :     0.012232
      dx2y2   :     0.022870
      dxy     :     0.023924

 14 H s       :     0.906560  s :     0.906560
      pz      :     0.030706  p :     0.070518
      px      :     0.023863
      py      :     0.015949

 15 C s       :     2.875788  s :     2.875788
      pz      :     1.004605  p :     3.093692
      px      :     1.064836
      py      :     1.024252
      dz2     :     0.009807  d :     0.086288
      dxz     :     0.026953
      dyz     :     0.010992
      dx2y2   :     0.016886
      dxy     :     0.021651

 16 H s       :     0.912988  s :     0.912988
      pz      :     0.029999  p :     0.070330
      px      :     0.015546
      py      :     0.024785

 17 C s       :     2.852014  s :     2.852014
      pz      :     0.997643  p :     2.934206
      px      :     0.995350
      py      :     0.941213
      dz2     :     0.017980  d :     0.155315
      dxz     :     0.040544
      dyz     :     0.034397
      dx2y2   :     0.019917
      dxy     :     0.042476

 18 H s       :     0.925607  s :     0.925607
      pz      :     0.016955  p :     0.069121
      px      :     0.025880
      py      :     0.026285

 19 O s       :     3.427770  s :     3.427770
      pz      :     1.648187  p :     4.730613
      px      :     1.650310
      py      :     1.432116
      dz2     :     0.001609  d :     0.021524
      dxz     :     0.004419
      dyz     :     0.008615
      dx2y2   :     0.002763
      dxy     :     0.004117

 20 H s       :     0.727643  s :     0.727643
      pz      :     0.054689  p :     0.177593
      px      :     0.051488
      py      :     0.071415

 21 C s       :     2.847509  s :     2.847509
      pz      :     0.960846  p :     2.872123
      px      :     1.005423
      py      :     0.905854
      dz2     :     0.083979  d :     0.336423
      dxz     :     0.078851
      dyz     :     0.065556
      dx2y2   :     0.055110
      dxy     :     0.052925

 22 O s       :     3.552585  s :     3.552585
      pz      :     1.667979  p :     4.870613
      px      :     1.641378
      py      :     1.561256
      dz2     :     0.003202  d :     0.024648
      dxz     :     0.005462
      dyz     :     0.005976
      dx2y2   :     0.003571
      dxy     :     0.006437

 23 O s       :     3.539719  s :     3.539719
      pz      :     1.525624  p :     4.845614
      px      :     1.693632
      py      :     1.626358
      dz2     :     0.007291  d :     0.025855
      dxz     :     0.008143
      dyz     :     0.005937
      dx2y2   :     0.001906
      dxy     :     0.002578



                      *****************************
                      * MAYER POPULATION ANALYSIS *
                      *****************************

  NA   - Mulliken gross atomic population
  ZA   - Total nuclear charge
  QA   - Mulliken gross atomic charge
  VA   - Mayer's total valence
  BVA  - Mayer's bonded valence
  FA   - Mayer's free valence

  ATOM       NA         ZA         QA         VA         BVA        FA
  0 C      5.9630     6.0000     0.0370     3.8948     3.8948     0.0000
  1 H      0.9818     1.0000     0.0182     0.9974     0.9974     0.0000
  2 H      1.0074     1.0000    -0.0074     1.0134     1.0134    -0.0000
  3 C      6.0221     6.0000    -0.0221     3.9150     3.9150    -0.0000
  4 C      5.9619     6.0000     0.0381     4.6338     4.6338     0.0000
  5 O      8.4444     8.0000    -0.4444     2.0225     2.0225     0.0000
  6 O      8.4502     8.0000    -0.4502     1.9947     1.9947     0.0000
  7 O      8.3810     8.0000    -0.3810     2.0829     2.0829     0.0000
  8 C      5.8011     6.0000     0.1989     3.8248     3.8248    -0.0000
  9 H      0.9843     1.0000     0.0157     0.9936     0.9936    -0.0000
 10 C      6.0689     6.0000    -0.0689     3.8598     3.8598    -0.0000
 11 H      1.0140     1.0000    -0.0140     1.0251     1.0251    -0.0000
 12 C      6.0298     6.0000    -0.0298     3.6754     3.6754     0.0000
 13 C      5.9688     6.0000     0.0312     3.9419     3.9419     0.0000
 14 H      1.0348     1.0000    -0.0348     1.0277     1.0277     0.0000
 15 C      6.0631     6.0000    -0.0631     3.8518     3.8518    -0.0000
 16 H      1.0227     1.0000    -0.0227     0.9867     0.9867    -0.0000
 17 C      5.7309     6.0000     0.2691     3.9383     3.9383     0.0000
 18 H      1.0225     1.0000    -0.0225     1.0289     1.0289     0.0000
 19 O      8.3764     8.0000    -0.3764     2.0302     2.0302    -0.0000
 20 H      0.8007     1.0000     0.1993     0.9998     0.9998    -0.0000
 21 C      5.9577     6.0000     0.0423     4.6424     4.6424     0.0000
 22 O      8.4684     8.0000    -0.4684     1.9997     1.9997     0.0000
 23 O      8.4443     8.0000    -0.4443     2.0120     2.0120     0.0000

  Mayer bond orders larger than 0.100000
B(  0-C ,  1-H ) :   0.9243 B(  0-C ,  2-H ) :   0.9232 B(  0-C ,  3-C ) :   1.9325 
B(  3-C ,  4-C ) :   0.8509 B(  3-C ,  7-O ) :   1.0486 B(  4-C ,  5-O ) :   1.8996 
B(  4-C ,  6-O ) :   1.8518 B(  7-O ,  8-C ) :   0.8895 B(  8-C ,  9-H ) :   0.9213 
B(  8-C , 10-C ) :   0.9563 B(  8-C , 17-C ) :   0.9571 B( 10-C , 11-H ) :   0.9623 
B( 10-C , 12-C ) :   1.7192 B( 12-C , 13-C ) :   1.1339 B( 12-C , 21-C ) :   0.8649 
B( 13-C , 14-H ) :   0.9666 B( 13-C , 15-C ) :   1.7592 B( 15-C , 16-H ) :   0.9574 
B( 15-C , 17-C ) :   0.9821 B( 17-C , 18-H ) :   0.9042 B( 17-C , 19-O ) :   1.0457 
B( 19-O , 20-H ) :   0.9486 B( 21-C , 22-O ) :   1.8940 B( 21-C , 23-O ) :   1.8888 


-------
TIMINGS
-------

Total SCF time: 0 days 0 hours 2 min 25 sec 

Total time                  ....     145.827 sec
Sum of individual times     ....     145.396 sec  ( 99.7%)

SCF preparation             ....       0.197 sec  (  0.1%)
Fock matrix formation       ....     144.200 sec  ( 98.9%)
  Startup                   ....       0.050 sec  (  0.0% of F)
  Split-RI-J                ....      12.539 sec  (  8.7% of F)
  Chain of spheres X        ....     109.939 sec  ( 76.2% of F)
  XC integration            ....      21.184 sec  ( 14.7% of F)
    XC Preparation          ....       0.000 sec  (  0.0% of XC)
    Basis function eval.    ....       7.397 sec  ( 34.9% of XC)
    Density eval.           ....       4.511 sec  ( 21.3% of XC)
    XC-Functional eval.     ....       1.463 sec  (  6.9% of XC)
    XC-Potential eval.      ....       5.762 sec  ( 27.2% of XC)
Diagonalization             ....       0.000 sec  (  0.0%)
Density matrix formation    ....       0.235 sec  (  0.2%)
Total Energy calculation    ....       0.049 sec  (  0.0%)
Population analysis         ....       0.062 sec  (  0.0%)
Orbital Transformation      ....       0.067 sec  (  0.0%)
Orbital Orthonormalization  ....       0.000 sec  (  0.0%)
DIIS solution               ....       0.280 sec  (  0.2%)
SOSCF solution              ....       0.307 sec  (  0.2%)
Finished LeanSCF after 145.9 sec

Maximum memory used throughout the entire LEANSCF-calculation: 35.2 MB


-------------------------------------------------------------------------------
                          DFT DISPERSION CORRECTION                            
                                                                               
                              DFTD3 V3.1  Rev 1                                
                          USING Becke-Johnson damping                          
-------------------------------------------------------------------------------
The B3LYP functional is recognized
Active option DFTDOPT                   ...         4   

molecular C6(AA) [au] = 6924.342834 


            DFT-D V3
 parameters
 s6 scaling factor         :     1.0000 
 a1 scaling factor         :     0.3981 
 s8 scaling factor         :     1.9889 
 a2 scaling factor         :     4.4211 
 ad hoc parameters k1-k3   :    16.0000     1.3333    -4.0000 

 Edisp/kcal,au: -32.871773023327  -0.052384499160 
 E6   /kcal   : -15.398307202 
 E8   /kcal   : -17.473465821 
 % E8         :  53.156444615 

-------------------------   ----------------
Dispersion correction           -0.052384499
-------------------------   ----------------


-------------------------   --------------------
FINAL SINGLE POINT ENERGY      -836.786437201154
-------------------------   --------------------



--------------------------------------   --------------------
FINAL SINGLE POINT ENERGY (QM/MM)    -1073.452327655248
--------------------------------------   --------------------

                    ************************************                      
                    *    QM/MM Gradient Calculation    *                      
                    ************************************                      


------------------------------------------------------------------------------
                                     MM                                       
------------------------------------------------------------------------------
------------------------------------------------------------------------------
                                     QM                                       
------------------------------------------------------------------------------
------------------------------------------------------------------------------
                         ORCA SCF GRADIENT CALCULATION
------------------------------------------------------------------------------

Nuc. rep. gradient        (SHARK) ... done (  0.0 sec)
HCore & Overlap gradient  (SHARK) ... done (  0.4 sec)
Split-RIJ-J gradient      (SHARK) ... done (  3.4 sec)
COSX-gradient                     ... done ( 60.0 sec)
XC gradient                       ... done (  9.0 sec)
Point charge gradient             ... done ( 58.3 sec)
Dispersion correction             ... done (  0.0 sec)

-------------------
DISPERSION GRADIENT
-------------------

   1   C   :    0.000801928    0.000645496    0.000907808
   2   H   :    0.000364187    0.000156897    0.000407108
   3   H   :    0.000319709    0.000199499    0.000152424
   4   C   :    0.000180077    0.000727323    0.000980175
   5   C   :   -0.000142265    0.001066301    0.000591945
   6   O   :   -0.000086840    0.000681862    0.000086640
   7   O   :   -0.000383217    0.000668863    0.000360338
   8   O   :   -0.000138518   -0.000108448    0.000759048
   9   C   :   -0.000453839   -0.000584389    0.000338204
  10   H   :   -0.000264734   -0.000337820    0.000264525
  11   C   :    0.000105615   -0.000842184    0.000266899
  12   H   :    0.000086490   -0.000464071    0.000234800
  13   C   :    0.000563528   -0.000573315   -0.000636134
  14   C   :    0.000159532    0.000048118   -0.001166983
  15   H   :    0.000095287    0.000171955   -0.000396149
  16   C   :   -0.000459914    0.000123637   -0.001119259
  17   H   :   -0.000146211    0.000192001   -0.000398671
  18   C   :   -0.000781873   -0.000296167   -0.000382641
  19   H   :   -0.000520883    0.000008351   -0.000104547
  20   O   :   -0.000653639   -0.000248122   -0.000252707
  21   H   :   -0.000341504   -0.000234897   -0.000074325
  22   C   :    0.000699312   -0.000491416   -0.000405336
  23   O   :    0.000512145   -0.000366884   -0.000097921
  24   O   :    0.000485628   -0.000142591   -0.000315239

Difference to translation invariance:
           :    0.0000000000    0.0000000000   -0.0000000000

Difference to rotation invariance:
           :   -0.0000000000    0.0000000000    0.0000000000

Norm of the Dispersion gradient    ...    0.0041287064
RMS gradient                       ...    0.0004865727
MAX gradient                       ...    0.0011669834

------------------
CARTESIAN GRADIENT
------------------

   1   C   :    0.033210102   -0.001260781    0.000328997
   2   H   :   -0.006424690   -0.003327139   -0.000734992
   3   H   :   -0.006269712    0.001736921   -0.002201074
   4   C   :   -0.016934592   -0.002920377    0.021440334
   5   C   :   -0.014105519    0.021822722   -0.032037625
   6   O   :   -0.081565038   -0.072211140    0.044721121
   7   O   :    0.104863169    0.031546234   -0.017277884
   8   O   :    0.029380842    0.005979088   -0.006710357
   9   C   :   -0.020426692   -0.009567353    0.027333955
  10   H   :   -0.003671720   -0.001868620   -0.015039184
  11   C   :    0.011792162    0.007536859    0.025442095
  12   H   :   -0.000118443    0.005078929    0.000645739
  13   C   :   -0.007279323    0.037666205   -0.050305296
  14   C   :    0.018796479   -0.011546101    0.023794673
  15   H   :   -0.003035334   -0.003081464    0.000437016
  16   C   :    0.002545710    0.013356272    0.016687699
  17   H   :    0.001723206   -0.011676443   -0.002265597
  18   C   :   -0.008768104   -0.010729669   -0.040582293
  19   H   :   -0.007932958   -0.010395820   -0.010704896
  20   O   :   -0.004824837    0.022386420    0.026631301
  21   H   :   -0.006191594   -0.009879184   -0.009843960
  22   C   :   -0.034135049   -0.009743410   -0.001688865
  23   O   :    0.011013095    0.047484587   -0.071648947
  24   O   :   -0.009521359   -0.059114503    0.088895180

Difference to translation invariance:
           :   -0.0178801972   -0.0227277675    0.0153171401

Difference to rotation invariance:
           :    3.4049981353   -3.4687524398   -1.5053944262

Norm of the Cartesian gradient     ...    0.2503278783
RMS gradient                       ...    0.0295014234
MAX gradient                       ...    0.1048631690

-------
TIMINGS
-------

Total SCF gradient time     ....      131.178 sec

Densities                   ....       0.001 sec  (  0.0%)
One electron gradient       ....       0.450 sec  (  0.3%)
RI-J Coulomb gradient       ....       3.424 sec  (  2.6%)
COSX gradient               ....      60.004 sec  ( 45.7%)
XC gradient                 ....       8.990 sec  (  6.9%)

Maximum memory used throughout the entire SCFGRAD-calculation: 40.2 MB


------------------
CARTESIAN GRADIENT (QM/MM)
------------------
   1   N   :   -0.000731589    0.003023412    0.029239416
   2   H   :    0.002502167   -0.002394231   -0.016212367
   3   H   :    0.005327166   -0.012473060   -0.002295024
   4   H   :   -0.002589153   -0.006095919   -0.003576280
   5   C   :   -0.008757873   -0.043036462   -0.008884706
   6   H   :   -0.000273032   -0.001704439    0.002273762
   7   C   :    0.008074116    0.034293001   -0.003254351
   8   H   :   -0.002283816    0.012162022    0.011384938
   9   H   :   -0.004115647   -0.003713337    0.000355116
  10   C   :   -0.013246153   -0.021841422    0.001855465
  11   H   :   -0.000158619   -0.001972101    0.002461649
  12   H   :    0.001106758    0.001834748    0.003065448
  13   S   :    0.001321500    0.018595609   -0.030319537
  14   C   :    0.005568946   -0.001841304    0.033802763
  15   H   :    0.005146466    0.000147888   -0.002536751
  16   H   :   -0.001818783   -0.001639524   -0.002543430
  17   H   :    0.005255452   -0.008343914   -0.004926526
  18   C   :   -0.032846928    0.010124773    0.018060516
  19   O   :    0.011731752   -0.015612698    0.000909842
  20   N   :    0.021297191    0.023545779   -0.015985601
  21   H   :   -0.009881584    0.000538579    0.002258591
  22   C   :    0.016800933    0.013860544   -0.006960253
  23   H   :    0.003375767    0.002589294   -0.001948421
  24   C   :   -0.005435624   -0.014068802   -0.010520357
  25   H   :   -0.000069977    0.002748075    0.007947042
  26   H   :    0.003664229   -0.004367771   -0.001489692
  27   C   :   -0.025740461    0.001711755   -0.022442157
  28   H   :    0.007004682   -0.000628560    0.004064092
  29   H   :    0.009766089    0.003938036   -0.000027998
  30   S   :   -0.001287057    0.022356747    0.018664836
  31   C   :    0.008792683   -0.016826674   -0.013190411
  32   H   :    0.000297256   -0.003461630    0.001353726
  33   H   :    0.000828636   -0.000755581    0.000010246
  34   H   :    0.000185879    0.000542245    0.000521336
  35   C   :    0.002438118    0.009624814    0.025907793
  36   O   :    0.005266137   -0.013736441   -0.023439174
  37   N   :   -0.007432226   -0.013115334    0.005356299
  38   H   :    0.002008318   -0.002088040    0.001559403
  39   C   :   -0.005437863    0.051718913   -0.002827959
  40   H   :    0.002773962   -0.000587833    0.005990787
  41   C   :    0.006617961   -0.014704677   -0.032153389
  42   H   :    0.003712977    0.012492156    0.011855589
  43   C   :    0.005695540   -0.003971743    0.018428227
  44   H   :   -0.004890415    0.000485667   -0.000595781
  45   H   :    0.000842051   -0.000380051    0.000107196
  46   H   :   -0.003978292   -0.002500264   -0.003103805
  47   C   :   -0.033163666   -0.018997239    0.030619367
  48   H   :    0.020829432    0.005099506   -0.009359322
  49   H   :    0.010431596    0.000473368   -0.008186465
  50   C   :    0.016981755    0.024586326    0.002865702
  51   H   :   -0.006684084   -0.005513511    0.002942883
  52   H   :    0.002198318   -0.003780513   -0.007259598
  53   H   :   -0.009090289   -0.009177043   -0.005422510
  54   C   :    0.033049559   -0.040665550   -0.003889849
  55   O   :   -0.020594603   -0.007754429    0.003877074
  56   N   :   -0.011095063    0.034858413    0.021060831
  57   H   :   -0.005620647    0.000451035   -0.005737390
  58   C   :    0.018123041   -0.018126589   -0.009884520
  59   H   :   -0.000202030    0.005679984   -0.007651152
  60   C   :   -0.004230206    0.015741081   -0.038833003
  61   H   :    0.000751648   -0.007423656    0.017710052
  62   H   :    0.000510058   -0.003129065    0.008176061
  63   C   :   -0.047001859   -0.011487486    0.016944870
  64   H   :    0.006102680   -0.000115672   -0.002052538
  65   H   :    0.001675961    0.000869849    0.002253543
  66   C   :   -0.005581705    0.019052117    0.019050739
  67   H   :    0.011079552   -0.003598828   -0.001447212
  68   H   :    0.003411959    0.000249265   -0.004654193
  69   N   :    0.054642264   -0.039411464   -0.003436773
  70   H   :   -0.020503671    0.014203122   -0.004340751
  71   C   :   -0.022278065    0.044195234    0.048034164
  72   N   :    0.011396725   -0.002686914   -0.027981185
  73   H   :   -0.002180751   -0.000039188   -0.000995273
  74   H   :   -0.014563762   -0.004865093   -0.000272863
  75   N   :    0.020250385   -0.027862207   -0.027201955
  76   H   :   -0.004873431   -0.002661919    0.000041750
  77   H   :   -0.001523237    0.002042370    0.007501158
  78   C   :    0.012395034    0.002471269   -0.014568015
  79   O   :   -0.009857579    0.005549252   -0.005261858
  80   N   :   -0.033252946    0.003328104   -0.000112068
  81   H   :    0.004068800    0.006331245   -0.006329917
  82   C   :   -0.005275098    0.000199023    0.043309546
  83   H   :    0.000127862   -0.002867263    0.004636438
  84   H   :   -0.000292592    0.001061855    0.002634181
  85   C   :    0.004169458   -0.007007985   -0.089042371
  86   O   :    0.010198805   -0.003156968    0.045287909
  87   N   :    0.011412393   -0.007011450    0.026481304
  88   H   :   -0.004090188   -0.001656550   -0.005499886
[...]
 55495   O   :   -0.017836440    0.016466555    0.029829901
 55496   H   :    0.016421229   -0.003601081   -0.006113098
 55497   H   :    0.002361796   -0.016412525   -0.019104056
 55498   O   :    0.023919851    0.024160444   -0.024146113
 55499   H   :    0.002476897   -0.003752703    0.006120614
 55500   H   :   -0.015270831   -0.009981962    0.007488876
 55501   O   :    0.009368870   -0.013810577    0.017755245
 55502   H   :   -0.008845602    0.008155913   -0.005520408
 55503   H   :    0.002178117    0.005041336   -0.012414907
 55504   O   :    0.002750187    0.021720350   -0.006102687
 55505   H   :   -0.007193641   -0.009637548    0.004581167
 55506   H   :   -0.000734368   -0.012453965   -0.000087185
 55507   O   :    0.013460846    0.002360455    0.006077300
 55508   H   :   -0.007530274    0.002442723   -0.004533596
 55509   H   :   -0.005910693   -0.004564331   -0.001188801
 55510   O   :    0.007570761   -0.016360329   -0.010323294
 55511   H   :   -0.003521328    0.001682069    0.004214383
 55512   H   :   -0.006434533    0.015490558    0.003498718
 55513   O   :    0.004647083   -0.019569986   -0.019537690
 55514   H   :   -0.003024766    0.009501101    0.007996355
 55515   H   :   -0.007973006    0.007679963    0.016180360
 55516   O   :   -0.016660377    0.001010823    0.000779594
 55517   H   :    0.009940968    0.005439200   -0.001646142
 55518   H   :    0.004692133   -0.003232569   -0.003881241
 55519   O   :    0.009863386   -0.008427444    0.017151667
 55520   H   :   -0.010050263    0.004837354   -0.011301501
 55521   H   :    0.000424319    0.001919535   -0.005623476
 55522   O   :   -0.010732876    0.010213877   -0.010401169
 55523   H   :    0.005913684   -0.006712855    0.003837856
 55524   H   :    0.010877897   -0.001598884    0.011092727
 55525   O   :   -0.005205970   -0.026332399    0.016046164
 55526   H   :   -0.001429366    0.016925702   -0.010863483
 55527   H   :    0.008451789    0.007715036    0.000754456
 55528   O   :    0.015710736   -0.021378109    0.007354316
 55529   H   :   -0.007095146    0.018866016   -0.002180261
 55530   H   :   -0.011690065    0.008710135   -0.004595680
 55531   O   :    0.006076110   -0.028411243   -0.015916617
 55532   H   :   -0.000392704    0.016879033    0.003264569
 55533   H   :   -0.011286202    0.002251536    0.007467884
 55534   O   :   -0.005371621   -0.000919602   -0.006725650
 55535   H   :    0.000912256    0.001122149    0.005458559
 55536   H   :    0.008718813    0.005619009    0.004611989
 55537   O   :    0.008754412   -0.016699146    0.022660657
 55538   H   :   -0.010567653    0.007225293   -0.017629247
 55539   H   :    0.001768401    0.015535389   -0.003003937
 55540   O   :    0.004984732   -0.018775668   -0.013088695
 55541   H   :   -0.004765622    0.007903235    0.004819191
 55542   H   :    0.002850418    0.012895997    0.009642675
 55543   O   :    0.015700156   -0.019979682   -0.005597387
 55544   H   :   -0.000736186    0.008353695   -0.000420766
 55545   H   :   -0.017739396    0.012727665    0.006310740
 55546   O   :   -0.013879108    0.001374362    0.012824092
 55547   H   :    0.013346822    0.003376379   -0.008822089
 55548   H   :    0.002579041   -0.005571575   -0.003366572
 55549   O   :   -0.005193454    0.001457508    0.023920522
 55550   H   :    0.000878582    0.005264514   -0.005082212
 55551   H   :    0.003549298   -0.004514078   -0.011198014
 55552   O   :   -0.000619225    0.003684045   -0.030199460
 55553   H   :   -0.000123702   -0.006858547    0.020854178
 55554   H   :   -0.000110540    0.003441531    0.018949273
 55555   O   :   -0.003883689    0.013147146    0.032165983
 55556   H   :    0.006094580   -0.009763749   -0.013900558
 55557   H   :   -0.005303610    0.003113975   -0.006466929
 55558   O   :   -0.003234691    0.013586609   -0.001618854
 55559   H   :    0.004189164   -0.012686298    0.006412575
 55560   H   :    0.002794180   -0.005127977    0.000516751
 55561   O   :    0.004551895   -0.001419684   -0.007020268
 55562   H   :   -0.006647384    0.002798466    0.003148728
 55563   H   :   -0.002348670   -0.000507050    0.008819270
 55564   O   :    0.013666201   -0.004329862    0.014865727
 55565   H   :   -0.005769067   -0.000261022   -0.010744556
 55566   H   :   -0.014022525    0.013485182   -0.002750710
 55567   O   :    0.009830520   -0.012464251    0.018445758
 55568   H   :   -0.008958945    0.008005539   -0.003040534
 55569   H   :   -0.000663041    0.006612002   -0.014858825
 55570   O   :   -0.013939999   -0.001892978    0.014040838
 55571   H   :    0.012202816   -0.007817537   -0.004333200
 55572   H   :    0.006896752    0.002836974   -0.011054445
 55573   O   :   -0.014424962    0.012580740   -0.000527548
 55574   H   :    0.009064358   -0.005653516   -0.000866318
 55575   H   :    0.007315706   -0.001088266   -0.001355201
 55576   O   :   -0.029126777    0.013325270   -0.001348829
 55577   H   :    0.013691042   -0.007504364    0.000942863
 55578   H   :    0.008581750    0.003668633   -0.001638203
 55579   O   :   -0.012702400    0.013805851    0.010670251
 55580   H   :    0.007068449   -0.001716603   -0.004440467
 55581   H   :    0.005810787   -0.009860253   -0.002825685
 55582   O   :    0.025805305    0.007139977    0.013200298
 55583   H   :   -0.018024487   -0.007388190   -0.004573237
 55584   H   :   -0.006138595    0.003683142   -0.006179871
 55585   O   :    0.007245813   -0.002058777   -0.016702881
 55586   H   :   -0.008130241   -0.006053615    0.013984274
 55587   H   :   -0.001941461    0.007054503    0.007638235
 55588   O   :    0.001065630    0.003301691    0.034996399
 55589   H   :    0.003429169    0.000250512   -0.023804683
 55590   H   :   -0.004269802   -0.004575774   -0.014694178
 55591   O   :    0.015293324   -0.008213081   -0.014580392
 55592   H   :   -0.000356227    0.004882042    0.009999080
 55593   H   :   -0.013586311    0.009229116    0.004682845
 55594   O   :    0.019370236   -0.022335466   -0.008418848
 55595   H   :   -0.002483098    0.009388552    0.003214127
 55596   H   :   -0.009656862    0.013951373   -0.000064517
 55597   O   :    0.001852573    0.019193962    0.016243650
 55598   H   :    0.001428354   -0.001681332   -0.006707420
 55599   H   :   -0.003700769   -0.009892263   -0.010025084
 55600   O   :   -0.000944320    0.015734016   -0.013825041
 55601   H   :    0.003091321   -0.009306599    0.010179685
 55602   H   :    0.001823228   -0.011982918    0.002304614
 55603   O   :   -0.008628100   -0.003846915    0.002866128
 55604   H   :    0.005922475    0.002044877   -0.001080879
 55605   H   :    0.006776889    0.002829129   -0.004113302
 55606   O   :   -0.003177145    0.005740721   -0.023701881
 55607   H   :    0.002758992   -0.004973392    0.017310965
 55608   H   :   -0.005694990   -0.004932455    0.005342058
 55609   O   :   -0.030120251    0.000271350    0.005258786
 55610   H   :    0.015254762    0.003200698   -0.003784836
 55611   H   :    0.018723901   -0.005770697   -0.001929908
 55612   O   :   -0.017093057    0.001065910   -0.015864041
 55613   H   :   -0.000025568   -0.003243764    0.006076173
 55614   H   :    0.015707896   -0.000961919    0.010673672
 55615   O   :    0.005145330    0.006390061   -0.025399124
 55616   H   :   -0.001176106    0.003193673    0.022500184
 55617   H   :   -0.002479007   -0.004726255    0.007803415
 55618   O   :    0.001999454   -0.006813692    0.022083003
 55619   H   :   -0.004457882    0.009088036   -0.013700160
 55620   H   :    0.008173417    0.005610921   -0.008181435
 55621   O   :    0.004722093   -0.002166902    0.032277653
 55622   H   :   -0.007602830    0.003083384   -0.023989270
 55623   H   :    0.004214215   -0.001424911   -0.006326489
 55624   O   :    0.016559598   -0.017496958   -0.002746421
 55625   H   :   -0.008860614    0.006323493    0.002840599
 55626   H   :   -0.005468242    0.009235509   -0.005143095
 55627   O   :   -0.000848839   -0.017294217   -0.014626060
 55628   H   :   -0.008541734    0.013130349    0.007445530
 55629   H   :    0.004907428    0.006920258    0.004517473
 55630   O   :   -0.006563005   -0.009668066    0.017516684
 55631   H   :    0.000506002    0.003678200   -0.000238905
 55632   H   :    0.005582669    0.004128702   -0.014114533
 55633   O   :   -0.013956522   -0.002454281   -0.001618814
 55634   H   :    0.012058415    0.006021128    0.003816649
 55635   H   :    0.003024066    0.002120455   -0.003690942
 55636   O   :   -0.005641900    0.013386875   -0.024727780
 55637   H   :    0.004904545   -0.005407528    0.018968257
 55638   H   :    0.002738525   -0.009249909    0.008317152
 55639   O   :    0.006856810   -0.020867614    0.011741808
 55640   H   :   -0.000523599    0.014908348    0.001398316
 55641   H   :   -0.006204850    0.008784775   -0.009255165
 55642   O   :    0.019378681   -0.010454406   -0.006841789
 55643   H   :   -0.006735694    0.002812488    0.005058043
 55644   H   :   -0.012198826    0.009735257    0.001819534
 55645   O   :    0.015451870   -0.004163524    0.009358347
 55646   H   :   -0.005765585   -0.000300821   -0.007342705
 55647   H   :   -0.008307549    0.005885972   -0.004229584
 55648   O   :    0.011517580    0.005212560    0.033037151
 55649   H   :   -0.002150978    0.001515931   -0.006913689
 55650   H   :   -0.007778357   -0.008391966   -0.018850570
 55651   O   :    0.007957569    0.018381006    0.021422249
 55652   H   :   -0.004386310   -0.010992478   -0.009148702
 55653   H   :   -0.005441480   -0.004544319   -0.011921543
 55654   O   :   -0.001770794    0.017413455   -0.009658937
 55655   H   :    0.000317967   -0.007330907    0.000084184
 55656   H   :    0.004162339   -0.000807629    0.013188781
 55657   O   :    0.000749747    0.028360027   -0.018143608
 55658   H   :    0.001526751   -0.010479406    0.012267332
 55659   H   :   -0.001569020   -0.008406900   -0.003769265
 55660   O   :    0.019500883    0.000466857    0.001334073
 55661   H   :   -0.010875094   -0.001825726   -0.005250588
 55662   H   :   -0.008910003   -0.001360324    0.001970637
 55663   O   :   -0.022122088    0.007591241   -0.021016323
 55664   H   :    0.009373784    0.002943625    0.017633834
 55665   H   :    0.010211040   -0.005420854    0.001540873
 55666   O   :    0.009113897    0.017005660    0.014618665
 55667   H   :    0.001048181   -0.010376292   -0.012634744
 55668   H   :   -0.006494871   -0.007359758   -0.004079783
 55669   O   :   -0.010534865   -0.011941209    0.007847976
 55670   H   :    0.008367707    0.002006481   -0.006632888
 55671   H   :    0.007309775    0.012110098   -0.007497001
 55672   O   :   -0.002088044   -0.019127304   -0.024466763
 55673   H   :    0.002177327    0.008113428    0.018595528
 55674   H   :    0.007862207    0.010526739    0.007609543
 55675   O   :    0.040356933   -0.004705240   -0.002339584
 55676   H   :   -0.016527010    0.009806809   -0.010364139
 55677   H   :   -0.018372374   -0.005973307    0.010179925
 55678   O   :    0.023945020    0.001957089   -0.012367320
 55679   H   :   -0.015222442    0.003655748    0.007438007
 55680   H   :   -0.010704020   -0.005527500    0.008462498

Norm of the Cartesian gradient     ...    4.784377525
RMS gradient                       ...    0.011706180
MAX gradient                       ...    0.105901149

------------------------------------------------------------------------------
                              ORCA PROPERTY CALCULATIONS
------------------------------------------------------------------------------

GBWName                                 ... dft_sp.gbw
Number of atoms                         ...     24
Number of basis functions               ...    264
Max core memory                         ...   3000 MB

Electric properties:
Dipole moment                           ... YES
Quadrupole moment                       ...  NO
Static polarizability (Dipole/Dipole)   ...  NO
Static polarizability (Dipole/Quad.)    ...  NO
Static polarizability (Quad./Quad.)     ...  NO
Static polarizability (Velocity)        ...  NO

Atomic electric properties:
Dipole moment                           ...  NO
Quadrupole moment                       ...  NO
Static polarizability                   ...  NO

Choice of electric origin               ... Center of mass
Position of electric origin             ...   111.148938    63.251970   105.303256

General magnetic properties:
Magnetizability                         ...  NO

EPR properties:
g-Tensor (aka g-matrix)                 ...  NO
Zero-Field splitting spin-orbit         ...  NO
Zero-field splitting spin-spin          ...  NO
Hyperfine couplings                     ...  NO (   0 nuclei)
Quadrupole couplings                    ...  NO (   0 nuclei)
Contact density                         ...  NO (   0 nuclei)

NMR properties:
Chemical shifts                         ...  NO (   0 nuclei)
Spin-rotation constants                 ...  NO (   0 nuclei)
Spin-spin couplings                     ...  NO (   0 nuclei,    0 pairs)

Choice of magnetic origin               ... GIAO
Position of magnetic origin             ...     0.000000     0.000000     0.000000

Properties with geometric perturbations:
SCF Hessian                             ...  NO
IR spectrum                             ...  NO
VCD spectrum                            ...  NO
X-ray spectroscopy properties:
SCF XES/XAS/RIXS spectra                ...  NO


-------------
DIPOLE MOMENT
-------------

Method             : SCF
Type of density    : Electron Density
Multiplicity       :   1
Irrep              :   0
Energy             :  -836.7340527019937326 Eh
Relativity type    : 
Basis              : AO
                                X                 Y                 Z
Electronic contribution:      0.165489839      -0.588086896       0.934380575
Nuclear contribution   :     -3.377323895      -2.050562121      -0.282759908
                        -----------------------------------------
Total Dipole Moment    :     -3.211834055      -2.638649017       0.651620667
                        -----------------------------------------
Magnitude (a.u.)       :      4.207488102
Magnitude (Debye)      :     10.694584842



--------------------
Rotational spectrum 
--------------------
 
Rotational constants in cm-1:             0.025782             0.014209             0.011765 
Rotational constants in MHz :           772.922445           425.973509           352.696719 

Dipole components along the rotational axes: 
x,y,z [a.u.] :     0.581463    -3.534623     2.207102 
x,y,z [Debye]:     1.477962    -8.984297     5.610008 

 

Dipole moment calculation done in   0.0 sec 

Maximum memory used throughout the entire PROP-calculation: 18.2 MB

--------------------------------
SUGGESTED CITATIONS FOR THIS RUN
--------------------------------

Below you find a list of papers that are relevant to this ORCA run
We neither can nor want to force you to cite these papers, but we appreciate if you do
You receive ORCA, which is the product of decades of hard work by many enthusiastic individuals, for free
The only thing we kindly ask in return is that you cite our papers,
We deeply appreciate it, if you show your appreciation for ORCA by not just citing the generic ORCA reference.

Please note that relegating all ORCA citations to the supporting information does *not* help us.
SI sections are not indexed - citations you put there will not count into any citation statistics
But we need these citations in order to attract the funding resources that allow us to do what we are doing

Therefore, if you are a happy ORCA user, please consider citing a few of the papers listed below in the main body of your paper

In addition to the list printed below, the program has created the file dft_sp.bibtex that contains the list in bibtex format
You can import this file easily into all common literature databanks and citation aid programs


List of essential papers. We consider these as the minimum necessary citations

  1. Neese,F.
     Software update: the ORCA program system, version 5.0
     WIRES Comput. Molec. Sci., 2022 12(1)e1606
     doi.org/10.1002/wcms.1606

List of papers to cite with high priority. The work reported in these papers was absolutely
necessary for this run to complete.
Our perspective: the developers of density functionals and basis sets usually get cited in chemistry papers
Good! But without the algorithms to do something with them, the functionals or basis sets would not do anything.
Hence, in our opinion, the algorithm design and method developments papers are equally worthy of getting cited

  1. Neese,F.
     An improvement of the resolution of the identity approximation for the formation of the Coulomb matrix
     J. Comp. Chem., 2003 24(14)1740-1747
     doi.org/10.1002/jcc.10318
  2. Neese,F.; Wennmohs,F.; Hansen,A.; Becker,U.
     Efficient, approximate and parallel Hartree-Fock and hybrid DFT calculations. A 'chain-of-spheres' algorithm for the Hartree-Fock exchange
     Chem. Phys., 2009 356(1-3)98-109
     doi.org/10.1016/j.chemphys.2008.10.036
  3. Helmich-Paris,B.; de Souza,B.; Neese,F.; Izsák,R.
     An improved chain of spheres for exchange algorithm
     J. Chem. Phys., 2021 155 104109
     doi.org/doi: 10.1063/5.0058766.
  4. Neese,F.
     The SHARK Integral Generation and Digestion System
     J. Comp. Chem., 2022  1-16
     doi.org/10.1002/jcc.26942
  5. Grimme,S.; Antony,J.; Ehrlich,S.; Krieg,H.
     A consistent and accurate ab initio parametrization of density functional dispersion correction (DFT-D) for the 94 elements H-Pu
     J. Chem. Phys., 2010 132 154104
     doi.org/10.1063/1.3382344
  6. Grimme,S.; Ehrlich,S.; Goerigk,L.
     Effect of the damping function in dispersion corrected density functional theory
     J. Comput. Chem., 2011 32(7)1456-1465
     doi.org/10.1002/jcc.21759

List of suggested additional citations. These are papers that are important in the 'surrounding' of 
of this run, or papers that preceded the highly important papers. If you like your results we are grateful for a citation.

  1. Izsak,R.; Neese,F.
     An overlap fitted chain of spheres exchange method
     J. Chem. Phys., 2011 135 144105
     doi.org/10.1063/1.3646921
  2. Izsak,R.; Hansen,A.; Neese,F.
     The resolution of identity and chain of spheres approximations for the LPNO-CCSD singles Fock term
     Molec. Phys., 2012 110 2413-2417
     doi.org/10.1080/00268976.2012.687466
  3. Neese,F.
     The ORCA program system
     WIRES Comput. Molec. Sci., 2012 2(1)73-78
     doi.org/10.1002/wcms.81
  4. Izsak,R.; Neese,F.; Klopper,W.
     Robust fitting techniques in the chain of spheres approximation to the Fock exchange: The role of the complementary space
     J. Chem. Phys., 2013 139 
     doi.org/10.1063/1.4819264
  5. Neese,F.
     Software update: the ORCA program system, version 4.0
     WIRES Comput. Molec. Sci., 2018 8(1)1-6
     doi.org/10.1002/wcms.1327
  6. Neese,F.; Wennmohs,F.; Becker,U.; Riplinger,C.
     The ORCA quantum chemistry program package
     J. Chem. Phys., 2020 152 Art. No. L224108
     doi.org/10.1063/5.0004608

List of optional additional citations

  1. Neese,F.
     Approximate second-order SCF convergence for spin unrestricted wavefunctions
     Chem. Phys. Lett., 2000 325(1-3)93-98
     doi.org/10.1016/s0009-2614(00)00662-x

Timings for individual modules:

Sum of individual times          ...      308.458 sec (=   5.141 min)
Startup calculation              ...       14.856 sec (=   0.248 min)   4.8 %
SCF iterations                   ...      147.678 sec (=   2.461 min)  47.9 %
Property calculations            ...        0.252 sec (=   0.004 min)   0.1 %
SCF Gradient evaluation          ...      131.448 sec (=   2.191 min)  42.6 %
MM module                        ...       14.225 sec (=   0.237 min)   4.6 %
                             ****ORCA TERMINATED NORMALLY****
TOTAL RUN TIME: 0 days 0 hours 5 minutes 15 seconds 393 msec
