
                                 *****************
                                 * O   R   C   A *
                                 *****************

                                            #,                                       
                                            ###                                      
                                            ####                                     
                                            #####                                    
                                            ######                                   
                                           ########,                                 
                                     ,,################,,,,,                         
                               ,,#################################,,                 
                          ,,##########################################,,             
                       ,#########################################, ''#####,          
                    ,#############################################,,   '####,        
                  ,##################################################,,,,####,       
                ,###########''''           ''''###############################       
              ,#####''   ,,,,##########,,,,          '''####'''          '####       
            ,##' ,,,,###########################,,,                        '##       
           ' ,,###''''                  '''############,,,                           
         ,,##''                                '''############,,,,        ,,,,,,###''
      ,#''                                            '''#######################'''  
     '                                                          ''''####''''         
             ,#######,   #######,   ,#######,      ##                                
            ,#'     '#,  ##    ##  ,#'     '#,    #''#        ,####,   ,####,        
            ##       ##  ##   ,#'  ##            #'  '#       #'       #'  '#        
            ##       ##  #######   ##           ,######,      #####,   #    #        
            '#,     ,#'  ##    ##  '#,     ,#' ,#      #,     #,   #   #,  ,#        
             '#######'   ##     ##  '#######'  #'      '#     '####' # '####'        



                #########################################################
                #                        -***-                          #
                #          Department of theory and spectroscopy        #
                #                                                       #
                #                      Frank Neese                      #
                #                                                       #
                #     Directorship, Architecture, Infrastructure        #
                #                    SHARK, DRIVERS                     #
                #        Core code/Algorithms in most modules           #
                #                                                       #
                #        Max Planck Institute fuer Kohlenforschung      #
                #                Kaiser Wilhelm Platz 1                 #
                #                 D-45470 Muelheim/Ruhr                 #
                #                      Germany                          #
                #                                                       #
                #                  All rights reserved                  #
                #                        -***-                          #
                #########################################################


                         Program Version 6.0.1  -  RELEASE   -


 With contributions from (in alphabetic order):
[Max-Planck-Institut fuer Kohlenforschung]                               
  Daniel Aravena         : Magnetic Suceptibility                        
  Michael Atanasov       : Ab Initio Ligand Field Theory (pilot matlab implementation)
  Alexander A. Auer      : GIAO ZORA, VPT2 properties, NMR spectrum      
  Ute Becker             : All parallelization in ORCA, NUMFREQ, NUMCALC 
  Giovanni Bistoni       : ED, misc. LED, open-shell LED, HFLD           
  Martin Brehm           : Molecular dynamics                            
  Dmytro Bykov           : pre 5.0 version of the SCF Hessian            
  Marcos Casanova-Páez   : Triplet and SCS-CIS(D). UHF-(DLPNO)-IP/EA/STEOM-CCSD. UHF-CVS-IP/STEOM-CCSD   
  Vijay G. Chilkuri      : MRCI spin determinant printing, contributions to CSF-ICE 
  Pauline Colinet        : FMM embedding                                 
  Dipayan Datta          : RHF DLPNO-CCSD density                        
  Achintya Kumar Dutta   : EOM-CC, STEOM-CC                              
  Nicolas Foglia         : Exact transition moments, OPA infrastructure, MCD improvements    
  Dmitry Ganyushin       : Spin-Orbit,Spin-Spin,Magnetic field MRCI      
  Miquel Garcia-Rates    : C-PCM and meta-GGA Hessian, CCSD/C-PCM, Gaussian charge scheme 
  Tiago L. C. Gouveia    : GS-ROHF, GS-ROCIS                             
  Yang Guo               : DLPNO-NEVPT2, F12-NEVPT2, CIM, IAO-localization        
  Andreas Hansen         : Spin unrestricted coupled pair/coupled cluster methods 
  Ingolf Harden          : AUTO-CI MPn and infrastructure                
  Benjamin Helmich-Paris : MC-RPA, TRAH-(SCF,CASSCF), AVAS, COSX integrals, SCF dyn. polar. 
  Lee Huntington         : MR-EOM, pCC                                   
  Robert Izsak           : Overlap fitted RIJCOSX, COSX-SCS-MP3, EOM     
  Riya Kayal             : Wick's Theorem for AUTO-CI, AUTO-CI UHF-CCSDT 
  Emily Kempfer          : AUTO-CI, RHF CISDT and CCSDT                  
  Christian Kollmar      : KDIIS, OOCD, Brueckner-CCSD(T), CCSD density, CASPT2, CASPT2-K, improved NEVPT2 
  Axel Koslowski         : Symmetry handling                             
  Simone Kossmann        : meta-GGA functionals, TD-DFT gradient, OOMP2, (MP2 Hessian; deprecated post 5.0) 
  Lucas Lang             : DCDCAS                                        
  Marvin Lechner         : AUTO-CI (C++ implementation), FIC-MRCC        
  Spencer Leger          : CASSCF response                               
  Dagmar Lenk            : GEPOL surface, SMD, ORCA-2-JSON               
  Dimitrios Liakos       : Extrapolation schemes; Compound Job, initial MDCI parallelization 
  Dimitrios Manganas     : Further ROCIS development; embedding schemes. LFT, Crystal Embedding 
  Dimitrios Pantazis     : SARC Basis sets                               
  Anastasios Papadopoulos: AUTO-CI, single reference methods and gradients 
  Taras Petrenko         : pre 6.0 DFT Hessian and TD-DFT gradient, (ASA, deprecated), ECA, 1-Electron XAS/XES, NRVS 
  Peter Pinski           : DLPNO-MP2, DLPNO-MP2 Gradient                 
  Christoph Reimann      : Effective Core Potentials                     
  Marius Retegan         : Local ZFS, SOC                                
  Christoph Riplinger    : Optimizer, TS searches, QM/MM, DLPNO-CCSD(T), (RO)-DLPNO pert. Triples 
  Michael Roemelt        : Original ROCIS implementation                 
  Masaaki Saitow         : Open-shell DLPNO-CCSD energy and density      
  Barbara Sandhoefer     : DKH picture change effects                    
  Kantharuban Sivalingam : CASSCF convergence/infrastructure, NEVPT2 and variants, FIC-MRCI 
  Bernardo de Souza      : ESD, SOC TD-DFT                               
  Georgi L. Stoychev     : AutoAux, RI-MP2 NMR, DLPNO-MP2 response, X2C  
  Van Anh Tran           : RI-MP2 g-tensors                              
  Willem Van den Heuvel  : Paramagnetic NMR                              
  Zikuan Wang            : NOTCH, Electric field optimization            
  Frank Wennmohs         : Technical directorship and infrastructure     
  Hang Xu                : AUTO-CI-Response properties                   
                                                                         
[FACCTs GmbH]                                                            
  Markus Bursch, Miquel Garcia-Rates, Christoph Riplinger, Bernardo de Souza, Georgi L. Stoychev 
                                                                 
  APM, Basis sets (HGBS, AHGBS, def-TZVP (Ac-Lr), def2-XVPD (La-Lu)), CI-OPT, improved COSX, DLPNO-Multilevel,           
  DOCKER, DRACO, updates on ESD, GOAT, IRC, LR-CPCM, MBIS, meta-GGA TD-DFT gradient, ML-optimized integration grids, 
  MM, NACMEs, nearIR, NEB, NEB-TS, NL-DFT gradient (VV10), 2- and 3-layer-ONIOM, interface openCOSMO-RS, QMMM,   
  Crystal-QMMM, SF, symmetry and pop. for TD-DFT, r2SCAN hybrids, SOLVATOR                                   
                                                                         
[Other institutions]                                                     
  V. Asgeirsson          : NEB                                           
  Christoph Bannwarth    : sTDA-DFT, sTD-DFT, PBEh-3c, B97-3c, D3        
  Sebastian Ehlert       : rSCAN, r2SCAN, r2SCAN-3c, D4, dhf basis sets  
  Marvin Friede          : D4 for Fr, Ra, Ac-Lr                          
  Lars Goerigk           : TD-DFT with DH, B97 family of functionals     
  Stefan Grimme          : VdW corrections, initial TS optimization, DFT functionals, gCP, sTDA/sTD-DF 
  Waldemar Hujo          : DFT-NL                                        
  H. Jonsson             : NEB                                           
  Holger Kruse           : gCP                                           
  Marcel Mueller         : wB97X-3c, vDZP basis set                      
  Hagen Neugebauer       : wr2SCAN                                       
  Tobias Risthaus        : range-separated hybrid DFT                    
  Lukas Wittmann         : regularized MP2, r2SCAN double-hybrids, wr2SCAN        
                                                                         
We gratefully acknowledge several colleagues who have allowed us to      
interface, adapt or use parts of their codes:                            
  Ed Valeev, F. Pavosevic, A. Kumar             : LibInt (2-el integral package), F12 methods 
  Garnet Chan, S. Sharma, J. Yang, R. Olivares  : DMRG                   
  Ulf Ekstrom                                   : XCFun DFT Library      
  Mihaly Kallay                                 : mrcc  (arbitrary order and MRCC methods)
  Frank Weinhold                                : gennbo (NPA and NBO analysis)           
  Simon Mueller                                 : openCOSMO-RS                            
  Christopher J. Cramer and Donald G. Truhlar   : smd solvation model                     
  S Lehtola, MJT Oliveira, MAL Marques          : LibXC Library                           
  Liviu Ungur et al                             : ANISO software                          


 Your calculation uses the libint2 library for the computation of 2-el integrals
 For citations please refer to: http://libint.valeyev.net

 Your ORCA version has been built with support for libXC version: 6.2.2
 For citations please refer to: https://libxc.gitlab.io

 This ORCA versions uses:
   CBLAS   interface :  Fast vector & matrix operations
   LAPACKE interface :  Fast linear algebra routines
   SCALAPACK package :  Parallel linear algebra routines
   Shared memory     :  Shared parallel matrices
   BLAS/LAPACK       :  OpenBLAS 0.3.27  USE64BITINT DYNAMIC_ARCH NO_AFFINITY SkylakeX SINGLE_THREADED
        Core in use  :  SkylakeX
   Copyright (c) 2011-2014, The OpenBLAS Project


NOTE: MaxCore=2000 MB was set to SCF,MP2,MDCI,CIPSI,MRCI and CIS
      => If you want to overwrite this, your respective input block should be placed after the MaxCore statement


***************************************
The coordinates will be read from file: frame_00820_CHA2.pdb
***************************************


Your calculation utilizes the geometrical counterpoise correction gCP
Please cite in your paper:
H.Kruse, S. Grimme J.Chem.Phys., 136, (2012), 154101 
   

Your calculation utilizes the atom-pairwise dispersion correction
with the Becke-Johnson damping scheme (D3BJ)


================================================================================

----- Orbital basis set information -----
Your calculation utilizes the basis: MINIX,
   a combination of small basis sets by S. Grimme (see manual for definitions).

================================================================================
                                        WARNINGS
                       Please study these warnings very carefully!
================================================================================


================================================================================
                                       INPUT FILE
================================================================================
NAME = smoke.inp
|  1> ! QMMM HF-3c EnGrad
|  2> %maxcore 2000
|  3> %pal nprocs 1 end
|  4> %qmmm
|  5>   QMAtoms {6207:6230} end
|  6>   ORCAFFFilename "complex_solvated.ORCAFF.prms"
|  7> end
|  8> *pdbfile -2 1 frame_00820_CHA2.pdb
|  9> 
| 10>                          ****END OF INPUT****
================================================================================

------------------------------------------------------------------------------

                             **************************
                             *           QMMM         *
                             **************************


------------------------------------------------------------------------------




Multiscale model                       ... QM/MM
Coupling Scheme                        ... additive
Embedding Scheme                       ... electrostatic
PrintLevel                             ... 1
Charge alteration scheme               ... Charge shifting
Scaling factor for CS scheme           ... 0.06
Gradient projection scheme             ... Lever rule
Point charges in QM calc. from MM atoms... 55656
              from charge shift scheme ... 0
Printing trajectories, xyz and allxyz files:
        QMMMRegion                     ... YES
        activeRegion                   ... NO
        activeRegionExt                ... NO
        qmRegion                       ... YES
Parameter files:
        ORCA Forcefield Filename       ... complex_solvated.ORCAFF.prms
        QM-LA bond distances Filename  ... smoke.H_DIST.prms.tmp
Forcefield type                        ... AMBER
Size of different subsystems (in atoms):
Size of QMMM System                    ... 55680
Size of MM Subsystem                   ... 55656
Size of QM Subsystem                   ... 24
Number of link atoms                   ... 0
Size of QM Subsystem plus link atoms   ... 24
Size of region for optimizer           ... 55680
        optimized atoms = activeRegion ... 55680
        fixed atoms (distance cutoff)  ... 0 ( 0.0)
Composition of different systems (atoms start counting at 0):
QM Subsystem                           ... 6207 6208 6209 6210 6211 6212 6213 6214 6215 6216 
                                           6217 6218 6219 6220 6221 6222 6223 6224 6225 6226 
                                           6227 6228 6229 6230 
Active atoms                           ... All atoms 
Constrain bonds and angle of MM waters ... NO

                     *******************************
                     * Energy+Gradient Calculation *
                     *******************************

                    ************************************                      
                    *          QM/MM SP Energy         *                      
                    ************************************                      



----------------------------------------------------------------------------
                                     MM                                         
------------------------------------------------------------------------------


Force Field is read from file          ... complex_solvated.ORCAFF.prms
Forcefield type                        ... AMBER
PrintLevel                             ... 1


Do energy and gradient calculation
Coulomb interaction settings:
   Dielectricity constant              ...        1.000
   1-4 scaling factor                  ...        0.833
   Force Shifting (Coulomb Interaction)... YES
       Coulomb CutOff                  ...       12.000 Ang.
   Force Switching (LJ Interaction)    ... YES
       LJ Inner CutOff                 ...       10.000 Ang.
       LJ Outer CutOff                 ...       12.000 Ang.
Do compute NB interaction for all atoms

-------------------------   ----------
MM Energy contributions:

---------------------------------- Bond Terms ----------------------------------
Bonds                         1.93272385

--------------------------------- Angle Terms ----------------------------------
Angles                        5.32396319

--------------------------- Angle Urey-Bradley Terms ---------------------------
Angles UB                     0.00000000

-------------------------------- Dihedral Terms --------------------------------
Dihedrals                     7.94741610

-------------------------------- Improper Terms --------------------------------
Impropers                     0.00000000

-------------------------- LJ and Coulomb interaction --------------------------

TOTAL TIME LJ + Coul           :....................        13.7202360000 seconds

LJ interaction                34.30155224
Coulomb interaction           -286.17154583
-------------------------   ----------

-------------------------   --------------------
FINAL SINGLE POINT ENERGY (MM)     -236.665890454095
-------------------------   --------------------


Printout of MM Cartesian gradient is suppressed (too many atoms).
Increase Printlevel to at least 2 to see Cartesian gradient.
Total MM SPGRAD time        ....      13.887 sec
------------------------------------------------------------------------------
                                     QM                                       
------------------------------------------------------------------------------
---------------------------------
CARTESIAN COORDINATES (ANGSTROEM)
---------------------------------
  C     60.231000   34.527000   57.281000
  H     60.752000   33.596000   57.497000
  H     60.716000   35.465000   57.018000
  C     58.873000   34.534000   57.259000
  C     58.044000   35.770000   56.884000
  O     58.524000   36.818000   56.519000
  O     56.867000   35.755000   57.172000
  O     58.138000   33.410000   57.534000
  C     57.706000   32.499000   56.447000
  H     57.051000   31.708000   56.834000
  C     59.064000   31.977000   56.039000
  H     59.593000   31.321000   56.727000
  C     59.686000   32.421000   54.906000
  C     59.087000   33.439000   54.129000
  H     59.686000   33.852000   53.320000
  C     57.795000   33.808000   54.272000
  H     57.352000   34.416000   53.487000
  C     56.857000   33.102000   55.199000
  H     56.107000   33.796000   55.599000
  O     56.061000   32.162000   54.502000
  H     55.682000   31.421000   55.006000
  C     61.050000   31.866000   54.574000
  O     61.758000   31.094000   55.238000
  O     61.620000   32.308000   53.587000

----------------------------
CARTESIAN COORDINATES (A.U.)
----------------------------
  NO LB      ZA    FRAG     MASS         X           Y           Z
   0 C     6.0000    0    12.011  113.820095   65.246574  108.245403
   1 H     1.0000    0     1.008  114.804642   63.487239  108.653584
   2 H     1.0000    0     1.008  114.736612   67.019137  107.748405
   3 C     6.0000    0    12.011  111.253847   65.259802  108.203829
   4 C     6.0000    0    12.011  109.687264   67.595504  107.495181
   5 O     8.0000    0    15.999  110.594332   69.575937  106.805431
   6 O     8.0000    0    15.999  107.463056   67.567158  108.039423
   7 O     8.0000    0    15.999  109.864898   63.135750  108.723503
   8 C     6.0000    0    12.011  109.048536   61.414210  106.669371
   9 H     1.0000    0     1.008  107.810766   59.919436  107.400695
  10 C     6.0000    0    12.011  111.614784   60.427773  105.898363
  11 H     1.0000    0     1.008  112.614449   59.188112  107.198494
  12 C     6.0000    0    12.011  112.790194   61.266811  103.757303
  13 C     6.0000    0    12.011  111.658248   63.190552  102.288986
  14 H     1.0000    0     1.008  112.790194   63.971009  100.760197
  15 C     6.0000    0    12.011  109.216722   63.887861  102.559217
  16 H     1.0000    0     1.008  108.379573   65.036815  101.075782
  17 C     6.0000    0    12.011  107.444159   62.553714  104.310993
  18 H     1.0000    0     1.008  106.026864   63.865184  105.066883
  19 O     8.0000    0    15.999  105.939937   60.777372  102.993854
  20 H     1.0000    0     1.008  105.223731   59.377085  103.946276
  21 C     6.0000    0    12.011  115.367780   60.218013  103.129914
  22 O     8.0000    0    15.999  116.705707   58.759144  104.384692
  23 O     8.0000    0    15.999  116.444924   61.053272  101.264754

--------------------------------
INTERNAL COORDINATES (ANGSTROEM)
--------------------------------
 C      0   0   0     0.000000000000     0.00000000     0.00000000
 H      1   0   0     1.088511828140     0.00000000     0.00000000
 H      1   2   0     1.088226998379   124.88034994     0.00000000
 C      1   2   3     1.358196230300   119.09035868   176.20368840
 C      4   1   2     1.534784023894   123.24165209   183.75588022
 O      5   4   1     1.209102559752   123.87281593     3.52929968
 O      5   4   1     1.211815992633   117.16701765   195.53067211
 O      4   1   2     1.370848642265   121.91168919     1.66971216
 C      8   4   1     1.482603790633   120.86139512   267.72793456
 H      9   8   4     1.097485763006   110.99164234   185.36718152
 C      9   8   4     1.510997021837    98.53253063    67.20539916
 H     11   9   8     1.087897513555   118.33163897    69.47185138
 C     11   9   8     1.366641503833   121.37697734   256.41408204
 C     13  11   9     1.413808332130   119.78350453     3.29705310
 H     14  13  11     1.088049171683   116.66005519   171.65307015
 C     14  13  11     1.351249051804   122.92695990   345.16053059
 H     16  14  13     1.087261698029   117.76719411   194.56790154
 C     16  14  13     1.495863964403   122.42969855   355.45721247
 H     18  16  14     1.097331308220   110.85387882   148.69004503
 O     18  16  14     1.415282657281   111.15891199   261.91468524
 H     20  18  16     0.973004624861   118.02062803   156.52171140
 C     13  11   9     1.509551257825   118.30292480   179.19950949
 O     22  13  11     1.240219335440   128.82404551   355.18625310
 O     22  13  11     1.222470040533   117.77167389   182.79426930

---------------------------
INTERNAL COORDINATES (A.U.)
---------------------------
 C      0   0   0     0.000000000000     0.00000000     0.00000000
 H      1   0   0     2.056989248718     0.00000000     0.00000000
 H      1   2   0     2.056450998475   124.88034994     0.00000000
 C      1   2   3     2.566618911390   119.09035868   176.20368840
 C      4   1   2     2.900321479877   123.24165209   183.75588022
 O      5   4   1     2.284872705755   123.87281593     3.52929968
 O      5   4   1     2.290000350781   117.16701765   195.53067211
 O      4   1   2     2.590528504939   121.91168919     1.66971216
 C      8   4   1     2.801715129410   120.86139512   267.72793456
 H      9   8   4     2.073947527958   110.99164234   185.36718152
 C      9   8   4     2.855370560442    98.53253063    67.20539916
 H     11   9   8     2.055828362394   118.33163897    69.47185138
 C     11   9   8     2.582578165495   121.37697734   256.41408204
 C     13  11   9     2.671710553582   119.78350453     3.29705310
 H     14  13  11     2.056114954721   116.66005519   171.65307015
 C     14  13  11     2.553490646629   122.92695990   345.16053059
 H     16  14  13     2.054626845176   117.76719411   194.56790154
 C     16  14  13     2.826773226324   122.42969855   355.45721247
 H     18  16  14     2.073655650713   110.85387882   148.69004503
 O     18  16  14     2.674496624349   111.15891199   261.91468524
 H     20  18  16     1.838712268025   118.02062803   156.52171140
 C     13  11   9     2.852638462405   118.30292480   179.19950949
 O     22  13  11     2.343674889976   128.82404551   355.18625310
 O     22  13  11     2.310133583530   117.77167389   182.79426930

---------------------
BASIS SET INFORMATION
---------------------
There are 3 groups of distinct atoms

 Group   1 Type C   : 6s3p contracted to 2s1p pattern {33/3}
 Group   2 Type H   : 3s contracted to 1s pattern {3}
 Group   3 Type O   : 6s3p contracted to 2s1p pattern {33/3}

Atom   0C    basis set group =>   1
Atom   1H    basis set group =>   2
Atom   2H    basis set group =>   2
Atom   3C    basis set group =>   1
Atom   4C    basis set group =>   1
Atom   5O    basis set group =>   3
Atom   6O    basis set group =>   3
Atom   7O    basis set group =>   3
Atom   8C    basis set group =>   1
Atom   9H    basis set group =>   2
Atom  10C    basis set group =>   1
Atom  11H    basis set group =>   2
Atom  12C    basis set group =>   1
Atom  13C    basis set group =>   1
Atom  14H    basis set group =>   2
Atom  15C    basis set group =>   1
Atom  16H    basis set group =>   2
Atom  17C    basis set group =>   1
Atom  18H    basis set group =>   2
Atom  19O    basis set group =>   3
Atom  20H    basis set group =>   2
Atom  21C    basis set group =>   1
Atom  22O    basis set group =>   3
Atom  23O    basis set group =>   3
------------------------------------------------------------------------------
                             ORCA STARTUP CALCULATIONS
------------------------------------------------------------------------------
------------------------------------------------------------------------------
                   ___                                                        
                  /   \      - P O W E R E D   B Y -                         
                 /     \                                                     
                 |  |  |   _    _      __       _____    __    __             
                 |  |  |  | |  | |    /  \     |  _  \  |  |  /  |          
                  \  \/   | |  | |   /    \    | | | |  |  | /  /          
                 / \  \   | |__| |  /  /\  \   | |_| |  |  |/  /          
                |  |  |   |  __  | /  /__\  \  |    /   |      \           
                |  |  |   | |  | | |   __   |  |    \   |  |\   \          
                \     /   | |  | | |  |  |  |  | |\  \  |  | \   \       
                 \___/    |_|  |_| |__|  |__|  |_| \__\ |__|  \__/        
                                                                              
                      - O R C A' S   B I G   F R I E N D -                    
                                      &                                       
                       - I N T E G R A L  F E E D E R -                       
                                                                              
 v1 FN, 2020, v2 2021, v3 2022-2024                                           
------------------------------------------------------------------------------


----------------------
SHARK INTEGRAL PACKAGE
----------------------

Number of atoms                             ...     24
Number of basis functions                   ...     88
Number of shells                            ...     56
Maximum angular momentum                    ...      1
Integral batch strategy                     ... SHARK/LIBINT Hybrid
RI-J (if used) integral strategy            ... SPLIT-RIJ (Revised 2003 algorithm where possible)
Printlevel                                  ...      1
Contraction scheme used                     ... SEGMENTED contraction
Prescreening option                         ... SCHWARTZ
   Thresh                                   ... 2.500e-11
   Tcut                                     ... 2.500e-12
   Tpresel                                  ... 2.500e-12 
Coulomb Range Separation                    ... NOT USED
Exchange Range Separation                   ... NOT USED
Multipole approximations                    ... NOT USED
Finite Nucleus Model                        ... NOT USED
CABS basis                                  ... NOT available
Auxiliary Coulomb fitting basis             ... NOT available
Auxiliary J/K fitting basis                 ... NOT available
Auxiliary Correlation fitting basis         ... NOT available
Auxiliary 'external' fitting basis          ... NOT available

Checking pre-screening integrals            ... done (  0.0 sec) Dimension = 56
Check shell pair data                       ... done (  0.0 sec)
Shell pair information
Shell pair cut-off parameter TPreSel        ...   2.5e-12
Total number of shell pairs                 ...      1596
Shell pairs after pre-screening             ...      1409
Total number of primitive shell pairs       ...     14364
Primitive shell pairs kept                  ...      8138
          la=0 lb=0:    680 shell pairs
          la=1 lb=0:    596 shell pairs
          la=1 lb=1:    133 shell pairs

Reading point charge file                   ... ok (55656 point charges)
Calculating one electron integrals          ... done (  4.7 sec)
Calculating Nuclear repulsion               ... (+Point charges) done (  0.0 sec) ENN=   1142.657628057892 Eh
Calculating 4-index integrals               ...     -> SHARK/Ints2Disk: Thresh =     2.500000e-11 TCut=    2.500000e-12 
    -> calling libint FockFlag=2 Lmax_loc=1
    ->Total LIBINT loop time =    0.000 sec
    -> L=0 0 0 0:     0.090 sec done=    191149 (=100.0%) skipped=         0 
    -> L=1 0 0 0:     0.260 sec done=    350667 (=100.0%) skipped=         0 
    -> L=1 0 1 0:     0.368 sec done=    160028 (=100.0%) skipped=         0 
    -> L=1 1 0 0:     0.110 sec done=     82453 (=100.0%) skipped=         0 
    -> L=1 1 1 0:     0.450 sec done=     74294 (=100.0%) skipped=         0 
    -> L=1 1 1 1:     0.212 sec done=      8583 (=100.0%) skipped=         0 
    ->Total SHARK integral loop time =    1.492 sec
    -> Total Integral generation matrix time =    1.580 sec
    -> Number of small integrals   =    778214
    -> Number of medium integrals  =   1465176
    -> Number of large integrals   =   3217553
    -> Number of MB stored         =        54 MB

done (  1.6 sec)

Diagonalization of the overlap matrix:
Smallest eigenvalue                        ... 1.788e-01
Time for diagonalization                   ...    0.024 sec
Threshold for overlap eigenvalues          ... 1.000e-07
Number of eigenvalues below threshold      ... 0
Time for construction of square roots      ...    0.005 sec
Total time needed                          ...    0.040 sec

-------------------
DFT GRID GENERATION
-------------------

General Integration Accuracy     IntAcc      ... 4.388
Radial Grid Type                 RadialGrid  ... OptM3 with GC (2021)
Angular Grid (max. ang.)         AngularGrid ... 4 (Lebedev-302)
Angular grid pruning method      GridPruning ... 4 (adaptive)
Weight generation scheme         WeightScheme... mBecke (2022)
Basis function cutoff            BFCut       ... 1.0000e-11
Integration weight cutoff        WCut        ... 1.0000e-14
Partially contracted basis set               ... off
Rotationally invariant grid construction     ... off
Angular grids for H and He will be reduced by one unit

Total number of grid points                  ...   121701
Total number of batches                      ...     1914
Average number of points per batch           ...       63
Average number of grid points per atom       ...     5071
Initializing property integral containers    ... done (  0.0 sec)

SHARK setup successfully completed in   7.8 seconds

Maximum memory used throughout the entire STARTUP-calculation: 42.3 MB
-------------------------------------------------------------------------------
                                 ORCA GUESS
                   Start orbitals & Density for SCF / CASSCF
-------------------------------------------------------------------------------

------------
SCF SETTINGS
------------
Hamiltonian:
 Ab initio Hamiltonian  Method          .... Hartree-Fock(GTOs)


General Settings:
 Integral files         IntName         .... smoke
 Hartree-Fock type      HFTyp           .... RHF
 Total Charge           Charge          ....   -2
 Multiplicity           Mult            ....    1
 Number of Electrons    NEL             ....  118
 Basis Dimension        Dim             ....   88
 Nuclear Repulsion      ENuc            ....   1142.6576280579 Eh

Convergence Acceleration:
 AO-DIIS                CNVDIIS         .... on
   Start iteration      DIISMaxIt       ....    12
   Startup error        DIISStart       ....  0.200000
   # of expansion vecs  DIISMaxEq       ....     5
   Bias factor          DIISBfac        ....   1.050
   Max. coefficient     DIISMaxC        ....  10.000
 MO-DIIS                CNVKDIIS        .... off
 Trust-Rad. Augm. Hess. CNVTRAH         .... auto
   Auto Start mean grad. ratio tolernc. ....  1.125000
   Auto Start start iteration           ....    50
   Auto Start num. interpolation iter.  ....    10
   Max. Number of Micro iterations      ....    24
   Max. Number of Macro iterations      .... Maxiter - #DIIS iter
   Number of Davidson start vectors     ....     2
   Converg. threshold    (grad. norm)   ....   1.000e-05
   Grad. Scal. Fac. for Micro threshold ....   0.100
   Minimum threshold for Micro iter.    ....   1.000e-02
   NR start threshold (gradient norm)   ....   1.000e-04
   Initial trust radius                 ....   0.400
   Minimum AH scaling param. (alpha)    ....   1.000
   Maximum AH scaling param. (alpha)    .... 1000.000
   Quad. conv. algorithm                .... NR
   White noise on init. David. guess    .... on
   Maximum white noise                  ....   0.010
   Pseudo random numbers                .... off
   Inactive MOs                         .... canonical
   Orbital update algorithm             .... Taylor
   Preconditioner                       .... Diag
   Full preconditioner red. dimension   ....   250
 SOSCF                  CNVSOSCF        .... on
   Start iteration      SOSCFMaxIt      ....   150
   Startup grad/error   SOSCFStart      ....  0.003300
   Hessian update       SOSCFHessUp     .... L-BFGS
 Level Shifting         CNVShift        .... on
   Level shift para.    LevelShift      ....    0.2500
   Turn off err/grad.   ShiftErr        ....    0.0010
 Zerner damping         CNVZerner       .... off
 Static damping         CNVDamp         .... on
   Fraction old density DampFac         ....    0.7000
   Max. Damping (<1)    DampMax         ....    0.9800
   Min. Damping (>=0)   DampMin         ....    0.0000
   Turn off err/grad.   DampErr         ....    0.1000

SCF Procedure:
 Maximum # iterations   MaxIter         ....   125
 SCF integral mode      SCFMode         .... Conventional
 Integral Threshold     Thresh          ....  2.500e-11 Eh
 Primitive CutOff       TCut            ....  2.500e-12 Eh
 Integral Buffer length BufferLength    .... 1048576
 Integral index format  IndFormat       ....     0
 Integral value format  ValFormat       ....     0
 Integral Storage       Thresh          ....  2.500e-11 Eh

Convergence Tolerance:
 Convergence Check Mode ConvCheckMode   .... Total+1el-Energy
 Convergence forced     ConvForced      .... 0
 Energy Change          TolE            ....  1.000e-08 Eh
 1-El. energy change                    ....  1.000e-05 Eh
 Orbital Gradient       TolG            ....  1.000e-05
 Orbital Rotation angle TolX            ....  1.000e-05
 DIIS Error             TolErr          ....  5.000e-07

--------------------------------
INITIAL GUESS: MINIMAL BASIS EHT
--------------------------------
The minimal basis has 88 functions
EHT matrix was diagonalized
Basis set overlap was calculated now projecting the orbitals
Using GuessMode=FMatrix for the initial guess
C*T matrix was formed
Effective Fockian was calculated
Effective Fockian was diagonalized
Initial density was built
                      ------------------
                      INITIAL GUESS DONE
                      ------------------
             **** ENERGY FILE WAS UPDATED (smoke.en.tmp) ****
Finished Guess after   0.2 sec
Maximum memory used throughout the entire GUESS-calculation: 5.4 MB

-------------------------------------------------------------------------------------------
                                      ORCA LEAN-SCF
                              memory conserving SCF solver
-------------------------------------------------------------------------------------------


 InCore treatment chosen for four center integrals:
   Memory dedicated               ...    2000 MB
   Memory needed                  ...     54 MB
   Number of tiny    integrals    ...  778214
   Number of small   integrals    ... 1465176
   Number of regular integrals    ... 3217553

----------------------------------------D-I-I-S--------------------------------------------
Iteration    Energy (Eh)           Delta-E    RMSDP     MaxDP     DIISErr   Damp  Time(sec)
-------------------------------------------------------------------------------------------
    1    -825.8195339136739221     0.00e+00  1.02e-02  1.32e-01  3.14e-01  0.700   0.2
    2    -826.2172197163888541    -3.98e-01  8.31e-03  1.05e-01  2.28e-01  0.700   0.2
                               ***Turning on AO-DIIS***
    3    -826.4858327485665086    -2.69e-01  5.16e-03  6.18e-02  1.65e-01  0.700   0.2
    4    -826.6685431545390657    -1.83e-01  3.80e-03  4.46e-02  1.16e-01  0.700   0.2
    5    -826.7971058042064669    -1.29e-01  2.88e-03  3.37e-02  8.10e-02  0.700   0.2
    6    -826.8884283139273066    -9.13e-02  7.27e-03  8.51e-02  5.66e-02  0.000   0.2
    7    -827.1076362105907265    -2.19e-01  6.13e-04  1.02e-02  4.81e-03  0.000   0.2
                              *** Initializing SOSCF ***
---------------------------------------S-O-S-C-F--------------------------------------
Iteration    Energy (Eh)           Delta-E    RMSDP     MaxDP     MaxGrad    Time(sec)
--------------------------------------------------------------------------------------
    8    -827.1080215192159812    -3.85e-04  4.66e-04  8.19e-03  2.47e-03     0.2
    9    -827.1081568305510245    -1.35e-04  1.34e-04  2.63e-03  4.29e-04     0.1
   10    -827.1081721386594836    -1.53e-05  1.28e-04  2.35e-03  1.57e-04     0.2
   11    -827.1081763536876679    -4.22e-06  2.01e-05  3.19e-04  8.53e-05     0.2
   12    -827.1081765863407327    -2.33e-07  5.99e-06  8.24e-05  3.89e-05     0.2
   13    -827.1081766209949819    -3.47e-08  3.65e-06  4.68e-05  9.19e-06     0.2
   14    -827.1081766279226031    -6.93e-09  2.08e-06  3.11e-05  4.74e-06     0.2
                 **** Energy Check signals convergence ****

               *****************************************************
               *                     SUCCESS                       *
               *           SCF CONVERGED AFTER  14 CYCLES          *
               *****************************************************

             **** ENERGY FILE WAS UPDATED (smoke.en.tmp) ****

----------------
TOTAL SCF ENERGY
----------------

Total Energy       :       -827.10817662792260 Eh          -22506.75771 eV

Components:
Nuclear Repulsion  :       1142.65762805789177 Eh           31093.29481 eV
Electronic Energy  :      -1969.76580468581437 Eh          -53600.05252 eV
One Electron Energy:      -3415.13560305531473 Eh          -92930.56426 eV
Two Electron Energy:       1445.36979836950036 Eh           39330.51174 eV

Virial components:
Potential Energy   :      -1658.24220221911150 Eh          -45123.06433 eV
Kinetic Energy     :        831.13402559118890 Eh           22616.30663 eV
Virial Ratio       :          1.99515619762961

---------------
SCF CONVERGENCE
---------------

  Last Energy change         ...    6.9276e-09  Tolerance :   1.0000e-08
  Last MAX-Density change    ...    3.1110e-05  Tolerance :   1.0000e-07
  Last RMS-Density change    ...    2.0757e-06  Tolerance :   5.0000e-09
  Last DIIS Error            ...    2.4694e-03  Tolerance :   5.0000e-07
  Last Orbital Gradient      ...    4.7412e-06  Tolerance :   1.0000e-05
  Last Orbital Rotation      ...    1.6116e-05  Tolerance :   1.0000e-05


----------------
ORBITAL ENERGIES
----------------

  NO   OCC          E(Eh)            E(eV) 
   0   2.0000     -20.315030      -552.8001 
   1   2.0000     -20.303055      -552.4742 
   2   2.0000     -20.113716      -547.3220 
   3   2.0000     -20.111639      -547.2655 
   4   2.0000     -20.085829      -546.5632 
   5   2.0000     -20.073088      -546.2165 
   6   2.0000     -11.276161      -306.8399 
   7   2.0000     -11.247523      -306.0607 
   8   2.0000     -11.247114      -306.0495 
   9   2.0000     -11.244547      -305.9797 
  10   2.0000     -11.206237      -304.9372 
  11   2.0000     -11.173446      -304.0449 
  12   2.0000     -11.161567      -303.7217 
  13   2.0000     -11.156375      -303.5804 
  14   2.0000     -11.154913      -303.5406 
  15   2.0000     -11.137588      -303.0692 
  16   2.0000      -1.378794       -37.5189 
  17   2.0000      -1.354411       -36.8554 
  18   2.0000      -1.344865       -36.5956 
  19   2.0000      -1.331946       -36.2441 
  20   2.0000      -1.211068       -32.9548 
  21   2.0000      -1.166850       -31.7516 
  22   2.0000      -1.127889       -30.6914 
  23   2.0000      -1.031829       -28.0775 
  24   2.0000      -1.012056       -27.5395 
  25   2.0000      -0.975048       -26.5324 
  26   2.0000      -0.861936       -23.4545 
  27   2.0000      -0.818811       -22.2810 
  28   2.0000      -0.806002       -21.9324 
  29   2.0000      -0.735045       -20.0016 
  30   2.0000      -0.695549       -18.9269 
  31   2.0000      -0.675958       -18.3938 
  32   2.0000      -0.666867       -18.1464 
  33   2.0000      -0.643596       -17.5131 
  34   2.0000      -0.614089       -16.7102 
  35   2.0000      -0.599864       -16.3231 
  36   2.0000      -0.591826       -16.1044 
  37   2.0000      -0.588603       -16.0167 
  38   2.0000      -0.571299       -15.5458 
  39   2.0000      -0.565840       -15.3973 
  40   2.0000      -0.550965       -14.9925 
  41   2.0000      -0.534408       -14.5420 
  42   2.0000      -0.531362       -14.4591 
  43   2.0000      -0.526456       -14.3256 
  44   2.0000      -0.511835       -13.9277 
  45   2.0000      -0.504229       -13.7208 
  46   2.0000      -0.481864       -13.1122 
  47   2.0000      -0.455587       -12.3972 
  48   2.0000      -0.438779       -11.9398 
  49   2.0000      -0.427492       -11.6326 
  50   2.0000      -0.408097       -11.1049 
  51   2.0000      -0.338449        -9.2097 
  52   2.0000      -0.329561        -8.9678 
  53   2.0000      -0.323069        -8.7911 
  54   2.0000      -0.318036        -8.6542 
  55   2.0000      -0.299640        -8.1536 
  56   2.0000      -0.294909        -8.0249 
  57   2.0000      -0.279908        -7.6167 
  58   2.0000      -0.265485        -7.2242 
  59   0.0000       0.137837         3.7507 
  60   0.0000       0.203848         5.5470 
  61   0.0000       0.277782         7.5588 
  62   0.0000       0.372632        10.1398 
  63   0.0000       0.430044        11.7021 
  64   0.0000       0.440334        11.9821 
  65   0.0000       0.467533        12.7222 
  66   0.0000       0.541390        14.7320 
  67   0.0000       0.568260        15.4632 
  68   0.0000       0.586597        15.9621 
  69   0.0000       0.604429        16.4474 
*Only the first 10 virtual orbitals were printed.

                    ********************************
                    * MULLIKEN POPULATION ANALYSIS *
                    ********************************

-----------------------
MULLIKEN ATOMIC CHARGES
-----------------------
   0 C :   -0.266162
   1 H :    0.143216
   2 H :    0.136194
   3 C :    0.134055
   4 C :    0.405886
   5 O :   -0.676944
   6 O :   -0.659469
   7 O :   -0.446139
   8 C :    0.052354
   9 H :    0.149807
  10 C :   -0.091930
  11 H :    0.147923
  12 C :   -0.074067
  13 C :   -0.124584
  14 H :    0.151629
  15 C :   -0.146372
  16 H :    0.128410
  17 C :    0.051817
  18 H :    0.144716
  19 O :   -0.547810
  20 H :    0.322184
  21 C :    0.397062
  22 O :   -0.674002
  23 O :   -0.657771
Sum of atomic charges:   -2.0000000

--------------------------------
MULLIKEN REDUCED ORBITAL CHARGES
--------------------------------
  0 C s       :     3.138218  s :     3.138218
      pz      :     1.020796  p :     3.127945
      px      :     1.019430
      py      :     1.087719

  1 H s       :     0.856784  s :     0.856784

  2 H s       :     0.863806  s :     0.863806

  3 C s       :     3.054038  s :     3.054038
      pz      :     1.009286  p :     2.811907
      px      :     0.955382
      py      :     0.847239

  4 C s       :     2.948438  s :     2.948438
      pz      :     0.895882  p :     2.645676
      px      :     0.859795
      py      :     0.890000

  5 O s       :     3.801038  s :     3.801038
      pz      :     1.571645  p :     4.875906
      px      :     1.842364
      py      :     1.461897

  6 O s       :     3.805899  s :     3.805899
      pz      :     1.559599  p :     4.853570
      px      :     1.414972
      py      :     1.878999

  7 O s       :     3.752695  s :     3.752695
      pz      :     1.541656  p :     4.693443
      px      :     1.740015
      py      :     1.411773

  8 C s       :     3.117027  s :     3.117027
      pz      :     0.873559  p :     2.830620
      px      :     1.021041
      py      :     0.936020

  9 H s       :     0.850193  s :     0.850193

 10 C s       :     3.104150  s :     3.104150
      pz      :     1.019000  p :     2.987780
      px      :     0.978396
      py      :     0.990384

 11 H s       :     0.852077  s :     0.852077

 12 C s       :     3.052679  s :     3.052679
      pz      :     1.000648  p :     3.021389
      px      :     1.020856
      py      :     0.999885

 13 C s       :     3.079933  s :     3.079933
      pz      :     1.022833  p :     3.044651
      px      :     1.039066
      py      :     0.982751

 14 H s       :     0.848371  s :     0.848371

 15 C s       :     3.082454  s :     3.082454
      pz      :     1.023224  p :     3.063918
      px      :     0.995476
      py      :     1.045218

 16 H s       :     0.871590  s :     0.871590

 17 C s       :     3.092449  s :     3.092449
      pz      :     0.950520  p :     2.855734
      px      :     0.979641
      py      :     0.925573

 18 H s       :     0.855284  s :     0.855284

 19 O s       :     3.761145  s :     3.761145
      pz      :     1.662556  p :     4.786665
      px      :     1.692343
      py      :     1.431766

 20 H s       :     0.677816  s :     0.677816

 21 C s       :     2.961178  s :     2.961178
      pz      :     0.853656  p :     2.641760
      px      :     0.899755
      py      :     0.888349

 22 O s       :     3.813591  s :     3.813591
      pz      :     1.703221  p :     4.860411
      px      :     1.629439
      py      :     1.527752

 23 O s       :     3.805963  s :     3.805963
      pz      :     1.478631  p :     4.851808
      px      :     1.725808
      py      :     1.647369



                     *******************************
                     * LOEWDIN POPULATION ANALYSIS *
                     *******************************

----------------------
LOEWDIN ATOMIC CHARGES
----------------------
   0 C :   -0.191991
   1 H :    0.095329
   2 H :    0.090725
   3 C :    0.081815
   4 C :    0.281415
   5 O :   -0.614362
   6 O :   -0.598333
   7 O :   -0.325516
   8 C :    0.076074
   9 H :    0.092963
  10 C :   -0.051508
  11 H :    0.093883
  12 C :   -0.075125
  13 C :   -0.066987
  14 H :    0.097255
  15 C :   -0.113630
  16 H :    0.079623
  17 C :    0.070099
  18 H :    0.085240
  19 O :   -0.410034
  20 H :    0.238995
  21 C :    0.285895
  22 O :   -0.622895
  23 O :   -0.598929

-------------------------------
LOEWDIN REDUCED ORBITAL CHARGES
-------------------------------
  0 C s       :     3.013022  s :     3.013022
      pz      :     1.025187  p :     3.178969
      px      :     1.074914
      py      :     1.078869

  1 H s       :     0.904671  s :     0.904671

  2 H s       :     0.909275  s :     0.909275

  3 C s       :     2.985054  s :     2.985054
      pz      :     1.012156  p :     2.933131
      px      :     1.010343
      py      :     0.910631

  4 C s       :     2.923846  s :     2.923846
      pz      :     0.908308  p :     2.794739
      px      :     0.936462
      py      :     0.949969

  5 O s       :     3.686343  s :     3.686343
      pz      :     1.574257  p :     4.928019
      px      :     1.850215
      py      :     1.503547

  6 O s       :     3.691706  s :     3.691706
      pz      :     1.562217  p :     4.906627
      px      :     1.463790
      py      :     1.880620

  7 O s       :     3.612989  s :     3.612989
      pz      :     1.544330  p :     4.712527
      px      :     1.744270
      py      :     1.423927

  8 C s       :     2.997609  s :     2.997609
      pz      :     0.919065  p :     2.926317
      px      :     1.045378
      py      :     0.961874

  9 H s       :     0.907037  s :     0.907037

 10 C s       :     2.992583  s :     2.992583
      pz      :     1.043875  p :     3.058925
      px      :     1.016060
      py      :     0.998990

 11 H s       :     0.906117  s :     0.906117

 12 C s       :     2.957817  s :     2.957817
      pz      :     1.038377  p :     3.117308
      px      :     1.057809
      py      :     1.021122

 13 C s       :     2.961934  s :     2.961934
      pz      :     1.029128  p :     3.105053
      px      :     1.073277
      py      :     1.002647

 14 H s       :     0.902745  s :     0.902745

 15 C s       :     2.973869  s :     2.973869
      pz      :     1.036829  p :     3.139762
      px      :     1.046393
      py      :     1.056541

 16 H s       :     0.920377  s :     0.920377

 17 C s       :     2.973755  s :     2.973755
      pz      :     0.989632  p :     2.956146
      px      :     1.006725
      py      :     0.959789

 18 H s       :     0.914760  s :     0.914760

 19 O s       :     3.612933  s :     3.612933
      pz      :     1.664477  p :     4.797101
      px      :     1.697031
      py      :     1.435592

 20 H s       :     0.761005  s :     0.761005

 21 C s       :     2.929558  s :     2.929558
      pz      :     0.915032  p :     2.784548
      px      :     0.948612
      py      :     0.920903

 22 O s       :     3.709266  s :     3.709266
      pz      :     1.716717  p :     4.913628
      px      :     1.650992
      py      :     1.545919

 23 O s       :     3.696152  s :     3.696152
      pz      :     1.509566  p :     4.902777
      px      :     1.740249
      py      :     1.652962



                      *****************************
                      * MAYER POPULATION ANALYSIS *
                      *****************************

  NA   - Mulliken gross atomic population
  ZA   - Total nuclear charge
  QA   - Mulliken gross atomic charge
  VA   - Mayer's total valence
  BVA  - Mayer's bonded valence
  FA   - Mayer's free valence

  ATOM       NA         ZA         QA         VA         BVA        FA
  0 C      6.2662     6.0000    -0.2662     3.9562     3.9562     0.0000
  1 H      0.8568     1.0000     0.1432     0.9795     0.9795    -0.0000
  2 H      0.8638     1.0000     0.1362     0.9815     0.9815    -0.0000
  3 C      5.8659     6.0000     0.1341     3.8948     3.8948     0.0000
  4 C      5.5941     6.0000     0.4059     3.9293     3.9293     0.0000
  5 O      8.6769     8.0000    -0.6769     1.8122     1.8122     0.0000
  6 O      8.6595     8.0000    -0.6595     1.8271     1.8271    -0.0000
  7 O      8.4461     8.0000    -0.4461     2.0122     2.0122     0.0000
  8 C      5.9476     6.0000     0.0524     3.8876     3.8876    -0.0000
  9 H      0.8502     1.0000     0.1498     0.9776     0.9776     0.0000
 10 C      6.0919     6.0000    -0.0919     3.9694     3.9694    -0.0000
 11 H      0.8521     1.0000     0.1479     0.9781     0.9781     0.0000
 12 C      6.0741     6.0000    -0.0741     3.9922     3.9922    -0.0000
 13 C      6.1246     6.0000    -0.1246     3.9743     3.9743     0.0000
 14 H      0.8484     1.0000     0.1516     0.9770     0.9770     0.0000
 15 C      6.1464     6.0000    -0.1464     3.9747     3.9747     0.0000
 16 H      0.8716     1.0000     0.1284     0.9835     0.9835     0.0000
 17 C      5.9482     6.0000     0.0518     3.8950     3.8950    -0.0000
 18 H      0.8553     1.0000     0.1447     0.9791     0.9791     0.0000
 19 O      8.5478     8.0000    -0.5478     1.8677     1.8677    -0.0000
 20 H      0.6778     1.0000     0.3222     0.8962     0.8962    -0.0000
 21 C      5.6029     6.0000     0.3971     3.9346     3.9346     0.0000
 22 O      8.6740     8.0000    -0.6740     1.7851     1.7851     0.0000
 23 O      8.6578     8.0000    -0.6578     1.8228     1.8228     0.0000

  Mayer bond orders larger than 0.100000
B(  0-C ,  1-H ) :   0.9661 B(  0-C ,  2-H ) :   0.9661 B(  0-C ,  3-C ) :   1.9010 
B(  3-C ,  4-C ) :   0.9089 B(  3-C ,  7-O ) :   0.9634 B(  4-C ,  5-O ) :   1.4884 
B(  4-C ,  6-O ) :   1.5029 B(  5-O ,  6-O ) :   0.2485 B(  7-O ,  8-C ) :   0.8812 
B(  8-C ,  9-H ) :   0.9480 B(  8-C , 10-C ) :   1.0163 B(  8-C , 17-C ) :   0.9505 
B( 10-C , 11-H ) :   0.9568 B( 10-C , 12-C ) :   1.8155 B( 10-C , 15-C ) :   0.1006 
B( 12-C , 13-C ) :   1.1062 B( 12-C , 21-C ) :   0.9407 B( 13-C , 14-H ) :   0.9528 
B( 13-C , 15-C ) :   1.8679 B( 15-C , 16-H ) :   0.9618 B( 15-C , 17-C ) :   1.0118 
B( 17-C , 18-H ) :   0.9428 B( 17-C , 19-O ) :   0.9291 B( 19-O , 20-H ) :   0.8680 
B( 21-C , 22-O ) :   1.4724 B( 21-C , 23-O ) :   1.5048 B( 22-O , 23-O ) :   0.2418 


-------
TIMINGS
-------

Total SCF time: 0 days 0 hours 0 min 2 sec 

Total time                  ....       2.403 sec
Sum of individual times     ....       2.139 sec  ( 89.0%)

SCF preparation             ....       0.105 sec  (  4.4%)
Fock matrix formation       ....       1.578 sec  ( 65.7%)
  Startup                   ....       0.051 sec  (  3.2% of F)
  Coulomb+Exchange Fock     ....       1.391 sec  ( 88.1% of F)
Diagonalization             ....       0.000 sec  (  0.0%)
Density matrix formation    ....       0.136 sec  (  5.7%)
Total Energy calculation    ....       0.022 sec  (  0.9%)
Population analysis         ....       0.040 sec  (  1.7%)
Orbital Transformation      ....       0.023 sec  (  1.0%)
Orbital Orthonormalization  ....       0.000 sec  (  0.0%)
DIIS solution               ....       0.141 sec  (  5.9%)
SOSCF solution              ....       0.094 sec  (  3.9%)
Finished LeanSCF after   2.4 sec

Maximum memory used throughout the entire LEANSCF-calculation: 108.6 MB


-------------------------------------------------------------------------------
                          DFT DISPERSION CORRECTION                            
                                                                               
                              DFTD3 V3.1  Rev 1                                
                          USING Becke-Johnson damping                          
-------------------------------------------------------------------------------
Hartree-Fock is recognized
Active option DFTDOPT                   ...         4   

molecular C6(AA) [au] = 6924.342834 


            DFT-D V3
 parameters
 using HF/MINIX parameters
 s6 scaling factor         :     1.0000 
 a1 scaling factor         :     0.4171 
 s8 scaling factor         :     0.8777 
 a2 scaling factor         :     2.9149 
 ad hoc parameters k1-k3   :    16.0000     1.3333    -4.0000 

 Edisp/kcal,au: -78.218457243882  -0.124649032617 
 E6   /kcal   : -43.552961117 
 E8   /kcal   : -34.665496127 
 % E8         :  44.318818535 

-------------------------   ----------------
Dispersion correction           -0.124649033
-------------------------   ----------------

------------------   -----------------
gCP+bas correction        -0.241057800
------------------   -----------------
----------------------------   ----------------
Total correction to HF/MINIX       -0.365706833
----------------------------   ----------------


-------------------------   --------------------
FINAL SINGLE POINT ENERGY      -827.473883460540
-------------------------   --------------------



--------------------------------------   --------------------
FINAL SINGLE POINT ENERGY (QM/MM)    -1064.139773914635
--------------------------------------   --------------------

                    ************************************                      
                    *    QM/MM Gradient Calculation    *                      
                    ************************************                      


------------------------------------------------------------------------------
                                     MM                                       
------------------------------------------------------------------------------
------------------------------------------------------------------------------
                                     QM                                       
------------------------------------------------------------------------------
------------------------------------------------------------------------------
                         ORCA SCF GRADIENT CALCULATION
------------------------------------------------------------------------------

Nuc. rep. gradient        (SHARK) ... done (  0.0 sec)
HCore & Overlap gradient  (SHARK) ... done (  0.1 sec)
Two-electron gradient     (SHARK) ... done (  5.1 sec)
Point charge gradient             ... done ( 24.3 sec)
Dispersion correction             ... done (  0.0 sec)

-------------------
DISPERSION GRADIENT
-------------------

   1   C   :    0.002796880    0.001071922    0.001726943
   2   H   :    0.001364106    0.000215788    0.000945595
   3   H   :    0.001291402    0.000400709    0.000129177
   4   C   :    0.000652784    0.001476318    0.002681601
   5   C   :   -0.001018757    0.002804634    0.000746521
   6   O   :   -0.000296294    0.002082256   -0.000437497
   7   O   :   -0.001533591    0.001634033    0.000747148
   8   O   :   -0.000646212   -0.000553950    0.002615479
   9   C   :   -0.001300533   -0.001939627    0.002190984
  10   H   :   -0.000760759   -0.001119389    0.001206911
  11   C   :    0.000398290   -0.003456833    0.001056212
  12   H   :    0.000213914   -0.001463830    0.001026996
  13   C   :    0.001240546   -0.001370735   -0.001454938
  14   C   :    0.000465547    0.001267060   -0.003024181
  15   H   :    0.000268390    0.000930059   -0.001177490
  16   C   :   -0.001022981    0.001634735   -0.003285298
  17   H   :   -0.000468810    0.000906585   -0.001092715
  18   C   :   -0.002940307   -0.000126918   -0.001006320
  19   H   :   -0.001718479    0.000444904   -0.000085736
  20   O   :   -0.001948216   -0.001148889   -0.001004028
  21   H   :   -0.001007468   -0.000910158   -0.000488696
  22   C   :    0.002380975   -0.001262630   -0.000937616
  23   O   :    0.001787311   -0.001198413    0.000090586
  24   O   :    0.001802261   -0.000317631   -0.001169637

Difference to translation invariance:
           :    0.0000000000    0.0000000000   -0.0000000000

Difference to rotation invariance:
           :    0.0000000000    0.0000000000   -0.0000000000

Norm of the Dispersion gradient    ...    0.0125594046
RMS gradient                       ...    0.0014801400
MAX gradient                       ...    0.0034568329
gCP correction                   ... done

------------------
CARTESIAN GRADIENT
------------------

   1   C   :    0.057369936   -0.001765137    0.002578342
   2   H   :   -0.005776692   -0.012740912    0.000831464
   3   H   :   -0.006112176    0.010806355   -0.005854413
   4   C   :   -0.061870606    0.017592324    0.025813770
   5   C   :    0.004136214   -0.004098321   -0.034153074
   6   O   :   -0.094370859   -0.079478824    0.052956268
   7   O   :    0.114151163    0.041025938   -0.020051073
   8   O   :    0.046545319    0.017568684   -0.004104782
   9   C   :   -0.011279809   -0.019670521    0.003893744
  10   H   :   -0.008127192   -0.004212294   -0.015528817
  11   C   :   -0.025749564    0.004307446    0.063181710
  12   H   :    0.005980273    0.001154903    0.006831787
  13   C   :    0.023319303    0.059580320   -0.106123428
  14   C   :    0.055749458   -0.035182614    0.037485461
  15   H   :    0.002006898   -0.001160637   -0.006362494
  16   C   :   -0.038210318    0.011530570    0.050104849
  17   H   :   -0.003231037   -0.007683517   -0.014042140
  18   C   :    0.007398392   -0.009619099   -0.057603785
  19   H   :   -0.012389870   -0.010355279   -0.010323734
  20   O   :   -0.006208239    0.021026696    0.037396650
  21   H   :   -0.005797297   -0.006334535   -0.015321302
  22   C   :   -0.060952249   -0.007399210    0.010923413
  23   O   :    0.010430193    0.059498344   -0.082454316
  24   O   :   -0.008166879   -0.068848469    0.097398143

Difference to translation invariance:
           :   -0.0211556372   -0.0244577900    0.0174722459

Difference to rotation invariance:
           :    3.7149783247   -4.0504002232   -1.5003430236

Norm of the Cartesian gradient     ...    0.3333309517
RMS gradient                       ...    0.0392834294
MAX gradient                       ...    0.1141511630

-------
TIMINGS
-------

Total SCF gradient time     ....       29.743 sec

Densities                   ....       0.000 sec  (  0.0%)
One electron gradient       ....       0.140 sec  (  0.5%)
Two electron gradient       ....       5.062 sec  ( 17.0%)

Maximum memory used throughout the entire SCFGRAD-calculation: 26.3 MB


------------------
CARTESIAN GRADIENT (QM/MM)
------------------
   1   N   :   -0.000731531    0.003023387    0.029239703
   2   H   :    0.002502242   -0.002394245   -0.016211992
   3   H   :    0.005327242   -0.012473081   -0.002294696
   4   H   :   -0.002589097   -0.006095953   -0.003575933
   5   C   :   -0.008757864   -0.043036469   -0.008884663
   6   H   :   -0.000272983   -0.001704480    0.002274001
   7   C   :    0.008074148    0.034292964   -0.003254196
   8   H   :   -0.002283813    0.012162016    0.011384961
   9   H   :   -0.004115643   -0.003713342    0.000355136
  10   C   :   -0.013246138   -0.021841442    0.001855528
  11   H   :   -0.000158603   -0.001972118    0.002461703
  12   H   :    0.001106772    0.001834728    0.003065509
  13   S   :    0.001321407    0.018595797   -0.030320009
  14   C   :    0.005568935   -0.001841285    0.033802713
  15   H   :    0.005146485    0.000147853   -0.002536669
  16   H   :   -0.001818766   -0.001639552   -0.002543346
  17   H   :    0.005255477   -0.008343943   -0.004926438
  18   C   :   -0.032846575    0.010124600    0.018061676
  19   O   :    0.011731420   -0.015612538    0.000908866
  20   N   :    0.021296910    0.023545872   -0.015986467
  21   H   :   -0.009881405    0.000538520    0.002259208
  22   C   :    0.016800914    0.013860548   -0.006960302
  23   H   :    0.003375845    0.002589270   -0.001948238
  24   C   :   -0.005435597   -0.014068802   -0.010520295
  25   H   :   -0.000069959    0.002748073    0.007947082
  26   H   :    0.003664246   -0.004367769   -0.001489651
  27   C   :   -0.025740460    0.001711755   -0.022442154
  28   H   :    0.007004726   -0.000628559    0.004064172
  29   H   :    0.009766129    0.003938045   -0.000027916
  30   S   :   -0.001287273    0.022356697    0.018664440
  31   C   :    0.008792645   -0.016826691   -0.013190487
  32   H   :    0.000297301   -0.003461605    0.001353813
  33   H   :    0.000828688   -0.000755554    0.000010352
  34   H   :    0.000185922    0.000542264    0.000521433
  35   C   :    0.002438692    0.009624776    0.025909218
  36   O   :    0.005265635   -0.013736508   -0.023440513
  37   N   :   -0.007432714   -0.013115262    0.005355191
  38   H   :    0.002008649   -0.002088132    0.001560115
  39   C   :   -0.005437944    0.051718919   -0.002828146
  40   H   :    0.002774066   -0.000587839    0.005991070
  41   C   :    0.006618173   -0.014704731   -0.032152917
  42   H   :    0.003713011    0.012492149    0.011855667
  43   C   :    0.005695088   -0.003971483    0.018427037
  44   H   :   -0.004890274    0.000485565   -0.000595429
  45   H   :    0.000842159   -0.000380119    0.000107541
  46   H   :   -0.003978182   -0.002500333   -0.003103518
  47   C   :   -0.033163749   -0.018997217    0.030619218
  48   H   :    0.020829480    0.005099486   -0.009359235
  49   H   :    0.010431637    0.000473358   -0.008186394
  50   C   :    0.016981603    0.024586339    0.002865464
  51   H   :   -0.006684045   -0.005513509    0.002942942
  52   H   :    0.002198364   -0.003780515   -0.007259522
  53   H   :   -0.009090242   -0.009177048   -0.005422444
  54   C   :    0.033050438   -0.040665387   -0.003888052
  55   O   :   -0.020595473   -0.007754614    0.003875543
  56   N   :   -0.011095571    0.034858223    0.021059724
  57   H   :   -0.005620276    0.000451173   -0.005736450
  58   C   :    0.018122659   -0.018126828   -0.009885275
  59   H   :   -0.000201792    0.005680121   -0.007650741
  60   C   :   -0.004230207    0.015741080   -0.038833005
  61   H   :    0.000751683   -0.007423626    0.017710137
  62   H   :    0.000510095   -0.003129028    0.008176136
  63   C   :   -0.047001818   -0.011487459    0.016944953
  64   H   :    0.006102710   -0.000115657   -0.002052475
  65   H   :    0.001675987    0.000869869    0.002253598
  66   C   :   -0.005581653    0.019052152    0.019050829
  67   H   :    0.011079617   -0.003598784   -0.001447097
  68   H   :    0.003412034    0.000249326   -0.004654071
  69   N   :    0.054641613   -0.039411790   -0.003437797
  70   H   :   -0.020503210    0.014203299   -0.004340007
  71   C   :   -0.022277099    0.044195672    0.048035540
  72   N   :    0.011395825   -0.002687395   -0.027982435
  73   H   :   -0.002180292   -0.000038964   -0.000994675
  74   H   :   -0.014563331   -0.004864811   -0.000272252
  75   N   :    0.020249247   -0.027862590   -0.027203464
  76   H   :   -0.004872777   -0.002661750    0.000042629
  77   H   :   -0.001522663    0.002042556    0.007501865
  78   C   :    0.012396256    0.002472225   -0.014565650
  79   O   :   -0.009858540    0.005548441   -0.005264027
  80   N   :   -0.033253723    0.003327437   -0.000113329
  81   H   :    0.004069284    0.006331647   -0.006329196
  82   C   :   -0.005275150    0.000198967    0.043309466
  83   H   :    0.000128028   -0.002867096    0.004636709
  84   H   :   -0.000292441    0.001062023    0.002634382
  85   C   :    0.004170438   -0.007006582   -0.089040722
  86   O   :    0.010198030   -0.003158130    0.045286593
  87   N   :    0.011411687   -0.007012653    0.026480086
  88   H   :   -0.004089633   -0.001655654   -0.005498956
  89   C   :    0.004447605   -0.005150536   -0.038402519
  90   H   :    0.008173075    0.003112297   -0.003846762
  91   C   :   -0.018356487    0.010731926    0.008826358
  92   H   :    0.003815044   -0.007676780   -0.001166384
  93   C   :    0.006002162    0.004553491    0.006063658
  94   H   :    0.001653626   -0.004911082    0.000806166
  95   H   :   -0.005691485   -0.003236908   -0.003163778
  96   H   :   -0.001728354   -0.002506142    0.001847540
  97   C   :    0.004452774    0.007755753   -0.011270929
  98   H   :   -0.010547327    0.002651615    0.000831705
  99   H   :    0.007870459    0.004208437   -0.010939528
 100   C   :   -0.016403651   -0.008474537    0.006362029
 101   H   :    0.014109844    0.015296436    0.005075080
 102   H   :   -0.004677852   -0.005443296   -0.005326584
 103   H   :    0.007354116   -0.008011282    0.001143259
 104   C   :   -0.005122086    0.011297269    0.021495242
 105   O   :    0.006971825   -0.000074700    0.030552056
 106   N   :   -0.003623122   -0.032014890   -0.019196657
 107   H   :   -0.001159677   -0.003168626    0.005258594
 108   C   :    0.015115285    0.038899615    0.012772443
 109   H   :    0.009437744    0.000076739   -0.002031816
 110   C   :   -0.044578014   -0.016939454    0.005747567
 111   H   :    0.003652633   -0.004604407   -0.001720570
 112   H   :    0.002380821    0.001271526   -0.002990933
 113   C   :    0.018182588    0.014688558   -0.026805884
 114   H   :   -0.006560799    0.002771239    0.005434821
 115   H   :    0.000213669   -0.002748836    0.005680676
 116   C   :    0.006535971   -0.022378887   -0.018633545
 117   H   :    0.002268054   -0.009071731    0.007598560
 118   H   :   -0.002738235    0.002482961   -0.004525817
 119   N   :   -0.009371693    0.013169828    0.008639406
 120   H   :   -0.000729520   -0.005160451   -0.000058293
 121   C   :    0.011927090   -0.019782313   -0.003764844
 122   N   :    0.022459806   -0.003125378    0.006235818
 123   H   :   -0.003715010   -0.004941694   -0.001924995
 124   H   :   -0.002469941    0.006834238   -0.000714937
 125   N   :   -0.011296992    0.026761355    0.008063939
 126   H   :    0.004830268    0.002868918    0.004119260
 127   H   :    0.000901794    0.002089248   -0.006320013
 128   C   :   -0.002837147    0.010439075   -0.051926616
 129   O   :   -0.007784993   -0.005595466    0.035812919
 130   N   :    0.022791791    0.003787589   -0.008581005
 131   H   :   -0.002448162   -0.010455512   -0.002192668
 132   C   :   -0.036137240   -0.019932990    0.028233645
 133   H   :   -0.003039674    0.021701878   -0.005535721
 134   H   :    0.001387078   -0.002438967   -0.000329079
 135   C   :    0.045360143    0.013408213    0.001572576
 136   O   :   -0.026885258    0.006235087    0.002973509
 137   N   :   -0.014519293   -0.037142974    0.001683295
 138   H   :   -0.001364577    0.002189256    0.006652624
 139   C   :    0.010342784    0.044954774   -0.027944644
 140   H   :   -0.000445742   -0.008926831    0.001150216
 141   C   :   -0.009820468   -0.032263233    0.001936455
 142   H   :   -0.001254382   -0.002115576    0.001726395
 143   H   :    0.001804552    0.003561667    0.000660520
 144   H   :    0.006445959    0.012908803    0.000866038
 145   C   :   -0.007342613    0.071097917   -0.053639939
 146   O   :   -0.001675645    0.004740139   -0.001900371
 147   N   :   -0.000980303   -0.089262972    0.067781001
 148   H   :    0.002824138    0.002380178   -0.003866734
 149   C   :   -0.020365778    0.007617059    0.004212395
 150   H   :   -0.002568492   -0.005852265    0.001847089
 151   C   :    0.012309215   -0.025576359   -0.006899753
 152   H   :    0.011498067    0.005069590    0.012211603
 153   C   :    0.002575962    0.023918535   -0.008773915
 154   H   :   -0.002027435    0.000081059    0.000525784
 155   H   :    0.001536183   -0.006566911   -0.001156942
 156   H   :   -0.002323553   -0.006113380    0.007919084
 157   O   :   -0.002424677    0.016209473   -0.001992814
 158   H   :   -0.012523937   -0.007249648    0.005266320
 159   C   :    0.017973181   -0.022820544   -0.004091337
 160   O   :    0.015259205    0.005216688   -0.015027587
 161   N   :   -0.016965864    0.037047541   -0.011750496
 162   H   :   -0.001431827    0.003227677    0.007516730
 163   C   :    0.021103214   -0.031008328    0.009500149
 164   H   :   -0.008502843   -0.000178774   -0.005501141
 165   C   :    0.014658460    0.003659185   -0.012556474
 166   H   :    0.004942880   -0.003563521   -0.002968980
 167   C   :    0.023194501   -0.012424441    0.014237613
 168   H   :   -0.012152227    0.003589177   -0.002448754
 169   H   :   -0.014118778   -0.001793515   -0.011811061
 170   H   :    0.000171168    0.000560232   -0.002708128
 171   O   :   -0.004763081    0.004649629    0.021848474
 172   H   :   -0.014422664    0.011640366    0.004797070
 173   C   :   -0.007728683   -0.010014679    0.024814869
 174   O   :    0.006020644    0.008435688   -0.019419189
 175   N   :   -0.027347973   -0.008880279   -0.022363582
 176   H   :    0.010518670    0.002417557    0.004025361
 177   C   :   -0.000591021   -0.008925847    0.013171458
 178   H   :    0.005253639    0.001670594    0.008048858
 179   C   :    0.017336181   -0.004545384   -0.030318248
 180   H   :   -0.004108148   -0.005302172    0.003541501
 181   C   :   -0.004051004    0.022482292    0.009523897
 182   H   :    0.002437850    0.006268741    0.006289734
 183   H   :   -0.003169520   -0.011803405   -0.001267436
 184   H   :    0.004314302    0.004823425    0.003449742
 185   C   :    0.005033527   -0.008811377    0.006003700
 186   H   :    0.001090030    0.004605051    0.001714027
 187   H   :   -0.000884974    0.000159766    0.001505427
 188   H   :   -0.005885586    0.003316883   -0.000069287
 189   C   :   -0.008335543    0.065481540   -0.023637768
 190   O   :    0.001830141   -0.018801287    0.008204647
 191   N   :    0.006325785   -0.025529849    0.016585678
 192   H   :   -0.001582160   -0.003918661   -0.003184602
 193   C   :    0.002521203   -0.013061710   -0.028016338
 194   H   :    0.001275644   -0.006844554    0.006701506
 195   C   :   -0.005014503    0.016753879    0.017653780
 196   H   :    0.003515770   -0.000052302   -0.005258497
 197   H   :   -0.006023593    0.002836249   -0.010748696
 198   C   :    0.009685745   -0.013581617    0.033568857
 199   H   :   -0.007620427   -0.001665357   -0.008002059
 200   H   :   -0.010642312    0.000470435   -0.012984574
 201   C   :   -0.022050889    0.065431639   -0.009194768
 202   O   :   -0.009931019   -0.010835565    0.001712703
 203   O   :    0.039239399   -0.036687811    0.001165599
 204   C   :   -0.022037257   -0.020923829    0.021299404
 205   O   :    0.005644445    0.022984219   -0.020914571
 206   N   :    0.013677637   -0.002202763   -0.010936395
 207   H   :   -0.002711428   -0.004020522   -0.004743714
 208   C   :   -0.028429553    0.001662015    0.010503120
 209   H   :   -0.004703132    0.006464797   -0.001582664
 210   C   :    0.033613682   -0.012319476   -0.005400274
 211   H   :    0.000564835   -0.001181981    0.005211407
 212   H   :   -0.012471646    0.006485895   -0.003803280
 213   C   :   -0.004808813   -0.015319254    0.023990104
 214   H   :   -0.002990989   -0.005825363    0.004300330
 215   H   :   -0.002029069   -0.001243377    0.003936795
 216   C   :    0.018349463    0.028107189   -0.055538578
 217   H   :   -0.001548387   -0.009810461    0.011876261
 218   H   :   -0.003409673   -0.005751594    0.007127189
 219   N   :    0.006289178    0.022014374    0.004394181
 220   H   :   -0.000843280   -0.008178135    0.013178029
 221   C   :   -0.003637723   -0.011302889    0.003036409
 222   N   :    0.009197785    0.008518520    0.023621875
 223   H   :   -0.001047228   -0.001892231   -0.010012934
 224   H   :   -0.004214440   -0.009345482   -0.001839305
 225   N   :   -0.009731900    0.013195788   -0.033549611
 226   H   :   -0.002724734    0.002832467   -0.001406609
 227   H   :    0.003287680   -0.006419530    0.008074591
 228   C   :    0.001464841   -0.002767262    0.011959780
 229   O   :    0.006458199    0.019090000   -0.011288357
 230   N   :   -0.003519594   -0.012764588    0.026315436
 231   H   :   -0.001372329    0.000620676   -0.013855454
 232   C   :    0.021011410    0.027199214   -0.012018399
 233   H   :   -0.002729645   -0.001996247   -0.000782263
 234   C   :   -0.012048925   -0.008980352    0.007144102
 235   H   :    0.000127770   -0.000646708    0.002140589
 236   H   :    0.003306895    0.000768711   -0.004557589
 237   C   :   -0.001548079    0.006601993    0.015539451
 238   O   :    0.004013811    0.000926508   -0.003162039
 239   O   :    0.002746357   -0.000993194   -0.019654030
 240   C   :   -0.072057665   -0.016956848   -0.010082200
 241   O   :    0.047428988   -0.008516764    0.020218970
 242   N   :    0.018494854    0.011010353   -0.015501556
 243   H   :   -0.003534521   -0.001880295    0.002968088
 244   C   :    0.022187374    0.037632382    0.012557354
 245   H   :   -0.008042963   -0.002406371    0.001699496
 246   C   :   -0.007342895    0.005022891   -0.019067364
 247   H   :   -0.000565842   -0.002399761   -0.003104994
 248   C   :    0.013099881   -0.009859771    0.003973887
 249   H   :   -0.001593958   -0.002775215    0.002302234
 250   H   :   -0.003193095    0.000891941   -0.000343440
 251   H   :   -0.006208447   -0.003836511   -0.006604113
 252   O   :    0.002431461   -0.007934313    0.005847667
 253   H   :    0.000308591    0.011426042    0.001769635
 254   C   :   -0.005246744   -0.027515793   -0.004164468
 255   O   :   -0.003186861   -0.000060560    0.007395635
 256   N   :    0.023635932    0.008052748    0.010087678
 257   H   :   -0.011803458   -0.004750665   -0.001288025
 258   C   :    0.007198120    0.024171322   -0.025659354
 259   H   :    0.003047946   -0.000113907   -0.006436509
 260   C   :   -0.003958347    0.025721786    0.005276516
 261   H   :   -0.000785939   -0.002171169   -0.004152303
 262   H   :   -0.005028790   -0.008026600   -0.002613581
 263   C   :    0.001022632   -0.020835823   -0.003851751
 264   H   :    0.012924268    0.001807640    0.007816214
 265   H   :   -0.004675351    0.003289140   -0.001762999
 266   C   :   -0.023692746   -0.012904898   -0.009383148
 267   O   :    0.020881207    0.013027276    0.003791582
 268   O   :   -0.004018666    0.009490753    0.003293114
 269   C   :   -0.029024715   -0.010234212    0.063278475
 270   O   :    0.005067892   -0.003033298   -0.010703352
 271   N   :    0.018932551   -0.013943085   -0.031118589
 272   H   :    0.002909921    0.001953884   -0.003142772
 273   C   :   -0.015490645   -0.000201285   -0.016037568
 274   H   :    0.006465945   -0.003890901    0.011550455
 275   C   :   -0.008457950   -0.004292594    0.022792375
 276   H   :   -0.003908456    0.002066990   -0.001602703
 277   H   :    0.005050696    0.001799532    0.001602284
 278   C   :    0.006047290   -0.000991105   -0.003118915
 279   H   :   -0.011993681   -0.001913094   -0.006786435
 280   H   :    0.006639165    0.003266584    0.000633078
 281   C   :    0.035650895    0.007292771    0.036800766
 282   O   :    0.004492758    0.014366174   -0.012894640
 283   O   :   -0.025235151   -0.014444384   -0.033500149
 284   C   :    0.020046288    0.004216937    0.004105522
 285   O   :    0.000024643    0.001439763   -0.007211487
 286   N   :   -0.023848612    0.005949723    0.019220027
 287   H   :   -0.007168041   -0.001399434   -0.004487645
 288   C   :    0.035069790   -0.008012861    0.009511012
 289   H   :   -0.013407290    0.003625574   -0.004773179
 290   C   :    0.020990137    0.007964301    0.006475888
 291   H   :    0.000906535    0.001685859    0.004837807
 292   H   :   -0.003010962   -0.005007749   -0.004361887
 293   C   :   -0.038166917   -0.018815480    0.004066770
 294   H   :    0.000700438    0.000005567   -0.012253491
 295   H   :    0.005811395    0.005718760    0.002329562
 296   C   :   -0.022879625    0.004558609   -0.014304706
 297   O   :    0.031383896   -0.002379096    0.002330154
 298   O   :   -0.003507758    0.007042128    0.006507702
 299   C   :   -0.042971511    0.028284371   -0.019014961
 300   O   :    0.019192221   -0.012127805   -0.005002319
 301   N   :   -0.000495882   -0.025915177    0.023062791
 302   H   :    0.000523679    0.006875899   -0.001486978
 303   C   :    0.002602200    0.001457483    0.011354179
 304   H   :   -0.008434721   -0.013095377    0.011789897
 305   C   :    0.023506725   -0.005889425   -0.010142704
 306   H   :    0.001179349    0.006181682   -0.002019630
[...]
 55474   O   :   -0.011782489    0.000124555   -0.013222970
 55475   H   :    0.006461496   -0.000737076    0.001918479
 55476   H   :    0.004408849    0.003292538    0.014617570
 55477   O   :    0.005810480    0.015357766   -0.013902543
 55478   H   :   -0.008443165   -0.001047273    0.003928412
 55479   H   :    0.001817036   -0.013587918    0.010446988
 55480   O   :   -0.007523759   -0.019579157    0.001531279
 55481   H   :   -0.004162079    0.010560734    0.000375983
 55482   H   :    0.011631115    0.013927753    0.003307880
 55483   O   :    0.024360022   -0.021191098   -0.003084977
 55484   H   :   -0.012298270    0.004853381   -0.004730974
 55485   H   :   -0.010160467    0.013944624    0.001318439
 55486   O   :   -0.007498152    0.021736201    0.014998560
 55487   H   :    0.002881742   -0.018494278   -0.008698988
 55488   H   :    0.008540001   -0.002160761   -0.003416502
 55489   O   :    0.020917217    0.005768855    0.007852182
 55490   H   :   -0.010093601   -0.001490726   -0.008435920
 55491   H   :   -0.016861062   -0.000457035    0.000402731
 55492   O   :    0.005700019    0.028256983    0.017493122
 55493   H   :   -0.006576324   -0.021400985   -0.006067099
 55494   H   :    0.004454536   -0.004056725   -0.008550466
 55495   O   :   -0.017836482    0.016466396    0.029829949
 55496   H   :    0.016421248   -0.003601006   -0.006113121
 55497   H   :    0.002361819   -0.016412444   -0.019104080
 55498   O   :    0.023919736    0.024160402   -0.024146174
 55499   H   :    0.002476952   -0.003752683    0.006120642
 55500   H   :   -0.015270774   -0.009981943    0.007488907
 55501   O   :    0.009368816   -0.013810689    0.017755225
 55502   H   :   -0.008845575    0.008155971   -0.005520399
 55503   H   :    0.002178145    0.005041393   -0.012414898
 55504   O   :    0.002750274    0.021719888   -0.006102251
 55505   H   :   -0.007193677   -0.009637308    0.004580949
 55506   H   :   -0.000734404   -0.012453721   -0.000087390
 55507   O   :    0.013460831    0.002360305    0.006077261
 55508   H   :   -0.007530266    0.002442802   -0.004533577
 55509   H   :   -0.005910686   -0.004564256   -0.001188778
 55510   O   :    0.007570675   -0.016360343   -0.010323344
 55511   H   :   -0.003521286    0.001682076    0.004214408
 55512   H   :   -0.006434489    0.015490566    0.003498743
 55513   O   :    0.004646910   -0.019569924   -0.019538384
 55514   H   :   -0.003024673    0.009501084    0.007996704
 55515   H   :   -0.007972932    0.007679937    0.016180695
 55516   O   :   -0.016660150    0.001010753    0.000779585
 55517   H   :    0.009940860    0.005439234   -0.001646140
 55518   H   :    0.004692021   -0.003232531   -0.003881236
 55519   O   :    0.009863673   -0.008427332    0.017150445
 55520   H   :   -0.010050379    0.004837300   -0.011300904
 55521   H   :    0.000424173    0.001919495   -0.005622908
 55522   O   :   -0.010732741    0.010213804   -0.010401218
 55523   H   :    0.005913620   -0.006712818    0.003837880
 55524   H   :    0.010877829   -0.001598848    0.011092750
 55525   O   :   -0.005206055   -0.026333246    0.016046516
 55526   H   :   -0.001429293    0.016926125   -0.010863674
 55527   H   :    0.008451845    0.007715471    0.000754270
 55528   O   :    0.015711009   -0.021379231    0.007354473
 55529   H   :   -0.007095318    0.018866551   -0.002180310
 55530   H   :   -0.011690220    0.008710745   -0.004595756
 55531   O   :    0.006075393   -0.028410927   -0.015916247
 55532   H   :   -0.000392327    0.016878883    0.003264385
 55533   H   :   -0.011285829    0.002251351    0.007467694
 55534   O   :   -0.005371633   -0.000919682   -0.006725615
 55535   H   :    0.000912262    0.001122187    0.005458542
 55536   H   :    0.008718819    0.005619048    0.004611970
 55537   O   :    0.008754237   -0.016699752    0.022660151
 55538   H   :   -0.010567567    0.007225613   -0.017628973
 55539   H   :    0.001768491    0.015535705   -0.003003708
 55540   O   :    0.004984768   -0.018775752   -0.013088602
 55541   H   :   -0.004765641    0.007903277    0.004819142
 55542   H   :    0.002850401    0.012896036    0.009642630
 55543   O   :    0.015700444   -0.019979760   -0.005597422
 55544   H   :   -0.000736327    0.008353730   -0.000420746
 55545   H   :   -0.017739548    0.012727702    0.006310758
 55546   O   :   -0.013879333    0.001374467    0.012824542
 55547   H   :    0.013346933    0.003376316   -0.008822322
 55548   H   :    0.002579157   -0.005571619   -0.003366807
 55549   O   :   -0.005193468    0.001457257    0.023920623
 55550   H   :    0.000878584    0.005264634   -0.005082266
 55551   H   :    0.003549305   -0.004513946   -0.011198067
 55552   O   :   -0.000619274    0.003683434   -0.030199620
 55553   H   :   -0.000123681   -0.006858259    0.020854271
 55554   H   :   -0.000110514    0.003441823    0.018949332
 55555   O   :   -0.003883739    0.013146945    0.032165999
 55556   H   :    0.006094607   -0.009763647   -0.013900565
 55557   H   :   -0.005303587    0.003114079   -0.006466941
 55558   O   :   -0.003234799    0.013586572   -0.001618708
 55559   H   :    0.004189218   -0.012686282    0.006412504
 55560   H   :    0.002794231   -0.005127957    0.000516681
 55561   O   :    0.004551916   -0.001419789   -0.007020187
 55562   H   :   -0.006647395    0.002798517    0.003148687
 55563   H   :   -0.002348678   -0.000506998    0.008819232
 55564   O   :    0.013666103   -0.004330507    0.014866361
 55565   H   :   -0.005769013   -0.000260679   -0.010744915
 55566   H   :   -0.014022476    0.013485477   -0.002751030
 55567   O   :    0.009830573   -0.012464322    0.018445869
 55568   H   :   -0.008958971    0.008005574   -0.003040591
 55569   H   :   -0.000663069    0.006612036   -0.014858881
 55570   O   :   -0.013939113   -0.001892359    0.014038870
 55571   H   :    0.012202416   -0.007817887   -0.004332222
 55572   H   :    0.006896246    0.002836622   -0.011053363
 55573   O   :   -0.014424758    0.012580746   -0.000527429
 55574   H   :    0.009064257   -0.005653516   -0.000866376
 55575   H   :    0.007315609   -0.001088269   -0.001355259
 55576   O   :   -0.029127004    0.013324449   -0.001348624
 55577   H   :    0.013691133   -0.007503934    0.000942740
 55578   H   :    0.008581899    0.003669067   -0.001638294
 55579   O   :   -0.012702350    0.013805804    0.010670335
 55580   H   :    0.007068424   -0.001716581   -0.004440509
 55581   H   :    0.005810762   -0.009860227   -0.002825727
 55582   O   :    0.025804833    0.007139928    0.013200271
 55583   H   :   -0.018024240   -0.007388175   -0.004573223
 55584   H   :   -0.006138350    0.003683176   -0.006179859
 55585   O   :    0.007246465   -0.002060171   -0.016703423
 55586   H   :   -0.008130567   -0.006052981    0.013984563
 55587   H   :   -0.001941732    0.007055195    0.007638458
 55588   O   :    0.001065362    0.003301748    0.034996440
 55589   H   :    0.003429300    0.000250487   -0.023804705
 55590   H   :   -0.004269667   -0.004575807   -0.014694199
 55591   O   :    0.015293116   -0.008213065   -0.014580194
 55592   H   :   -0.000356119    0.004882034    0.009998982
 55593   H   :   -0.013586202    0.009229106    0.004682740
 55594   O   :    0.019369159   -0.022335658   -0.008419997
 55595   H   :   -0.002482566    0.009388618    0.003214741
 55596   H   :   -0.009656328    0.013951441   -0.000063977
 55597   O   :    0.001852606    0.019193996    0.016243373
 55598   H   :    0.001428340   -0.001681352   -0.006707280
 55599   H   :   -0.003700789   -0.009892283   -0.010024943
 55600   O   :   -0.000943982    0.015733828   -0.013824825
 55601   H   :    0.003091160   -0.009306500    0.010179575
 55602   H   :    0.001823067   -0.011982820    0.002304512
 55603   O   :   -0.008627966   -0.003846877    0.002865973
 55604   H   :    0.005922407    0.002044855   -0.001080798
 55605   H   :    0.006776822    0.002829113   -0.004113223
 55606   O   :   -0.003177280    0.005740694   -0.023701726
 55607   H   :    0.002759063   -0.004973380    0.017310888
 55608   H   :   -0.005694922   -0.004932444    0.005341979
 55609   O   :   -0.030120243    0.000271267    0.005258834
 55610   H   :    0.015254756    0.003200738   -0.003784860
 55611   H   :    0.018723897   -0.005770655   -0.001929931
 55612   O   :   -0.017092798    0.001065797   -0.015864230
 55613   H   :   -0.000025704   -0.003243702    0.006076272
 55614   H   :    0.015707766   -0.000961864    0.010673762
 55615   O   :    0.005145220    0.006389935   -0.025399040
 55616   H   :   -0.001176050    0.003193737    0.022500142
 55617   H   :   -0.002478948   -0.004726192    0.007803371
 55618   O   :    0.001999786   -0.006813662    0.022082742
 55619   H   :   -0.004458044    0.009088015   -0.013700027
 55620   H   :    0.008173258    0.005610909   -0.008181313
 55621   O   :    0.004722029   -0.002167035    0.032277631
 55622   H   :   -0.007602797    0.003083454   -0.023989259
 55623   H   :    0.004214247   -0.001424846   -0.006326478
 55624   O   :    0.016559053   -0.017496776   -0.002745909
 55625   H   :   -0.008860361    0.006323414    0.002840348
 55626   H   :   -0.005467977    0.009235407   -0.005143336
 55627   O   :   -0.000848402   -0.017294196   -0.014626190
 55628   H   :   -0.008541955    0.013130329    0.007445596
 55629   H   :    0.004907212    0.006920251    0.004517531
 55630   O   :   -0.006563073   -0.009668068    0.017516630
 55631   H   :    0.000506038    0.003678201   -0.000238876
 55632   H   :    0.005582703    0.004128703   -0.014114506
 55633   O   :   -0.013956293   -0.002454283   -0.001618990
 55634   H   :    0.012058301    0.006021130    0.003816732
 55635   H   :    0.003023957    0.002120458   -0.003690855
 55636   O   :   -0.005641420    0.013387538   -0.024728604
 55637   H   :    0.004904325   -0.005407840    0.018968672
 55638   H   :    0.002738300   -0.009250239    0.008317535
 55639   O   :    0.006856930   -0.020868302    0.011742162
 55640   H   :   -0.000523638    0.014908716    0.001398141
 55641   H   :   -0.006204893    0.008785098   -0.009255324
 55642   O   :    0.019378608   -0.010454262   -0.006841150
 55643   H   :   -0.006735653    0.002812433    0.005057731
 55644   H   :   -0.012198785    0.009735175    0.001819222
 55645   O   :    0.015451097   -0.004163249    0.009357930
 55646   H   :   -0.005765189   -0.000300975   -0.007342504
 55647   H   :   -0.008307144    0.005885823   -0.004229351
 55648   O   :    0.011517478    0.005212509    0.033037003
 55649   H   :   -0.002150926    0.001515959   -0.006913616
 55650   H   :   -0.007778305   -0.008391940   -0.018850491
 55651   O   :    0.007957874    0.018381419    0.021421709
 55652   H   :   -0.004386474   -0.010992684   -0.009148416
 55653   H   :   -0.005441620   -0.004544520   -0.011921273
 55654   O   :   -0.001770871    0.017413432   -0.009658990
 55655   H   :    0.000318007   -0.007330896    0.000084211
 55656   H   :    0.004162376   -0.000807617    0.013188807
 55657   O   :    0.000749661    0.028359796   -0.018143475
 55658   H   :    0.001526801   -0.010479291    0.012267262
 55659   H   :   -0.001568976   -0.008406791   -0.003769331
 55660   O   :    0.019500905    0.000466689    0.001334042
 55661   H   :   -0.010875107   -0.001825639   -0.005250571
 55662   H   :   -0.008910015   -0.001360244    0.001970653
 55663   O   :   -0.022122184    0.007592023   -0.021016890
 55664   H   :    0.009373837    0.002943247    0.017634130
 55665   H   :    0.010211092   -0.005421225    0.001541133
 55666   O   :    0.009113847    0.017005524    0.014618936
 55667   H   :    0.001048207   -0.010376222   -0.012634890
 55668   H   :   -0.006494844   -0.007359686   -0.004079915
 55669   O   :   -0.010534921   -0.011941343    0.007847976
 55670   H   :    0.008367737    0.002006549   -0.006632888
 55671   H   :    0.007309801    0.012110166   -0.007497003
 55672   O   :   -0.002088030   -0.019127426   -0.024466737
 55673   H   :    0.002177319    0.008113491    0.018595514
 55674   H   :    0.007862199    0.010526798    0.007609531
 55675   O   :    0.040356527   -0.004705159   -0.002338899
 55676   H   :   -0.016526815    0.009806786   -0.010364487
 55677   H   :   -0.018372163   -0.005973369    0.010179563
 55678   O   :    0.023945863    0.001956591   -0.012368256
 55679   H   :   -0.015222891    0.003655969    0.007438516
 55680   H   :   -0.010704440   -0.005527221    0.008462988

Norm of the Cartesian gradient     ...    4.789276462
RMS gradient                       ...    0.011718167
MAX gradient                       ...    0.106247396

------------------------------------------------------------------------------
                              ORCA PROPERTY CALCULATIONS
------------------------------------------------------------------------------

GBWName                                 ... smoke.gbw
Number of atoms                         ...     24
Number of basis functions               ...     88
Max core memory                         ...   2000 MB

Electric properties:
Dipole moment                           ... YES
Quadrupole moment                       ...  NO
Static polarizability (Dipole/Dipole)   ...  NO
Static polarizability (Dipole/Quad.)    ...  NO
Static polarizability (Quad./Quad.)     ...  NO
Static polarizability (Velocity)        ...  NO

Atomic electric properties:
Dipole moment                           ...  NO
Quadrupole moment                       ...  NO
Static polarizability                   ...  NO

Choice of electric origin               ... Center of mass
Position of electric origin             ...   111.148938    63.251970   105.303256

General magnetic properties:
Magnetizability                         ...  NO

EPR properties:
g-Tensor (aka g-matrix)                 ...  NO
Zero-Field splitting spin-orbit         ...  NO
Zero-field splitting spin-spin          ...  NO
Hyperfine couplings                     ...  NO (   0 nuclei)
Quadrupole couplings                    ...  NO (   0 nuclei)
Contact density                         ...  NO (   0 nuclei)

NMR properties:
Chemical shifts                         ...  NO (   0 nuclei)
Spin-rotation constants                 ...  NO (   0 nuclei)
Spin-spin couplings                     ...  NO (   0 nuclei,    0 pairs)

Choice of magnetic origin               ... GIAO
Position of magnetic origin             ...     0.000000     0.000000     0.000000

Properties with geometric perturbations:
SCF Hessian                             ...  NO
IR spectrum                             ...  NO
VCD spectrum                            ...  NO
X-ray spectroscopy properties:
SCF XES/XAS/RIXS spectra                ...  NO


-------------
DIPOLE MOMENT
-------------

Method             : SCF
Type of density    : Electron Density
Multiplicity       :   1
Irrep              :   0
Energy             :  -827.1081766279226031 Eh
Relativity type    : 
Basis              : AO
                                X                 Y                 Z
Electronic contribution:      0.184529069      -0.387586047       0.862901907
Nuclear contribution   :     -3.377323895      -2.050562121      -0.282759908
                        -----------------------------------------
Total Dipole Moment    :     -3.192794826      -2.438148167       0.580141998
                        -----------------------------------------
Magnitude (a.u.)       :      4.058949374
Magnitude (Debye)      :     10.317029402



--------------------
Rotational spectrum 
--------------------
 
Rotational constants in cm-1:             0.025782             0.014209             0.011765 
Rotational constants in MHz :           772.922445           425.973509           352.696719 

Dipole components along the rotational axes: 
x,y,z [a.u.] :     0.670138    -3.448844     2.032600 
x,y,z [Debye]:     1.703355    -8.766264     5.166458 

 

Dipole moment calculation done in   0.0 sec 

Maximum memory used throughout the entire PROP-calculation: 4.4 MB

--------------------------------
SUGGESTED CITATIONS FOR THIS RUN
--------------------------------

Below you find a list of papers that are relevant to this ORCA run
We neither can nor want to force you to cite these papers, but we appreciate if you do
You receive ORCA, which is the product of decades of hard work by many enthusiastic individuals, for free
The only thing we kindly ask in return is that you cite our papers,
We deeply appreciate it, if you show your appreciation for ORCA by not just citing the generic ORCA reference.

Please note that relegating all ORCA citations to the supporting information does *not* help us.
SI sections are not indexed - citations you put there will not count into any citation statistics
But we need these citations in order to attract the funding resources that allow us to do what we are doing

Therefore, if you are a happy ORCA user, please consider citing a few of the papers listed below in the main body of your paper

In addition to the list printed below, the program has created the file smoke.bibtex that contains the list in bibtex format
You can import this file easily into all common literature databanks and citation aid programs


List of essential papers. We consider these as the minimum necessary citations

  1. Neese,F.
     Software update: the ORCA program system, version 5.0
     WIRES Comput. Molec. Sci., 2022 12(1)e1606
     doi.org/10.1002/wcms.1606

List of papers to cite with high priority. The work reported in these papers was absolutely
necessary for this run to complete.
Our perspective: the developers of density functionals and basis sets usually get cited in chemistry papers
Good! But without the algorithms to do something with them, the functionals or basis sets would not do anything.
Hence, in our opinion, the algorithm design and method developments papers are equally worthy of getting cited

  1. Neese,F.
     The SHARK Integral Generation and Digestion System
     J. Comp. Chem., 2022  1-16
     doi.org/10.1002/jcc.26942
  2. Grimme,S.; Antony,J.; Ehrlich,S.; Krieg,H.
     A consistent and accurate ab initio parametrization of density functional dispersion correction (DFT-D) for the 94 elements H-Pu
     J. Chem. Phys., 2010 132 154104
     doi.org/10.1063/1.3382344
  3. Grimme,S.; Ehrlich,S.; Goerigk,L.
     Effect of the damping function in dispersion corrected density functional theory
     J. Comput. Chem., 2011 32(7)1456-1465
     doi.org/10.1002/jcc.21759

List of suggested additional citations. These are papers that are important in the 'surrounding' of 
of this run, or papers that preceded the highly important papers. If you like your results we are grateful for a citation.

  1. Neese,F.
     The ORCA program system
     WIRES Comput. Molec. Sci., 2012 2(1)73-78
     doi.org/10.1002/wcms.81
  2. Neese,F.
     Software update: the ORCA program system, version 4.0
     WIRES Comput. Molec. Sci., 2018 8(1)1-6
     doi.org/10.1002/wcms.1327
  3. Neese,F.; Wennmohs,F.; Becker,U.; Riplinger,C.
     The ORCA quantum chemistry program package
     J. Chem. Phys., 2020 152 Art. No. L224108
     doi.org/10.1063/5.0004608

List of optional additional citations

  1. Neese,F.
     Approximate second-order SCF convergence for spin unrestricted wavefunctions
     Chem. Phys. Lett., 2000 325(1-3)93-98
     doi.org/10.1016/s0009-2614(00)00662-x

Timings for individual modules:

Sum of individual times          ...       55.662 sec (=   0.928 min)
Startup calculation              ...        8.033 sec (=   0.134 min)  14.4 %
SCF iterations                   ...        3.045 sec (=   0.051 min)   5.5 %
Property calculations            ...        0.290 sec (=   0.005 min)   0.5 %
SCF Gradient evaluation          ...       30.011 sec (=   0.500 min)  53.9 %
MM module                        ...       14.283 sec (=   0.238 min)  25.7 %
                             ****ORCA TERMINATED NORMALLY****
TOTAL RUN TIME: 0 days 0 hours 1 minutes 3 seconds 137 msec
