
                                 *****************
                                 * O   R   C   A *
                                 *****************

                                            #,                                       
                                            ###                                      
                                            ####                                     
                                            #####                                    
                                            ######                                   
                                           ########,                                 
                                     ,,################,,,,,                         
                               ,,#################################,,                 
                          ,,##########################################,,             
                       ,#########################################, ''#####,          
                    ,#############################################,,   '####,        
                  ,##################################################,,,,####,       
                ,###########''''           ''''###############################       
              ,#####''   ,,,,##########,,,,          '''####'''          '####       
            ,##' ,,,,###########################,,,                        '##       
           ' ,,###''''                  '''############,,,                           
         ,,##''                                '''############,,,,        ,,,,,,###''
      ,#''                                            '''#######################'''  
     '                                                          ''''####''''         
             ,#######,   #######,   ,#######,      ##                                
            ,#'     '#,  ##    ##  ,#'     '#,    #''#        ,####,   ,####,        
            ##       ##  ##   ,#'  ##            #'  '#       #'       #'  '#        
            ##       ##  #######   ##           ,######,      #####,   #    #        
            '#,     ,#'  ##    ##  '#,     ,#' ,#      #,     #,   #   #,  ,#        
             '#######'   ##     ##  '#######'  #'      '#     '####' # '####'        



                #########################################################
                #                        -***-                          #
                #          Department of theory and spectroscopy        #
                #                                                       #
                #                      Frank Neese                      #
                #                                                       #
                #     Directorship, Architecture, Infrastructure        #
                #                    SHARK, DRIVERS                     #
                #        Core code/Algorithms in most modules           #
                #                                                       #
                #        Max Planck Institute fuer Kohlenforschung      #
                #                Kaiser Wilhelm Platz 1                 #
                #                 D-45470 Muelheim/Ruhr                 #
                #                      Germany                          #
                #                                                       #
                #                  All rights reserved                  #
                #                        -***-                          #
                #########################################################


                         Program Version 6.0.1  -  RELEASE   -


 With contributions from (in alphabetic order):
[Max-Planck-Institut fuer Kohlenforschung]                               
  Daniel Aravena         : Magnetic Suceptibility                        
  Michael Atanasov       : Ab Initio Ligand Field Theory (pilot matlab implementation)
  Alexander A. Auer      : GIAO ZORA, VPT2 properties, NMR spectrum      
  Ute Becker             : All parallelization in ORCA, NUMFREQ, NUMCALC 
  Giovanni Bistoni       : ED, misc. LED, open-shell LED, HFLD           
  Martin Brehm           : Molecular dynamics                            
  Dmytro Bykov           : pre 5.0 version of the SCF Hessian            
  Marcos Casanova-Páez   : Triplet and SCS-CIS(D). UHF-(DLPNO)-IP/EA/STEOM-CCSD. UHF-CVS-IP/STEOM-CCSD   
  Vijay G. Chilkuri      : MRCI spin determinant printing, contributions to CSF-ICE 
  Pauline Colinet        : FMM embedding                                 
  Dipayan Datta          : RHF DLPNO-CCSD density                        
  Achintya Kumar Dutta   : EOM-CC, STEOM-CC                              
  Nicolas Foglia         : Exact transition moments, OPA infrastructure, MCD improvements    
  Dmitry Ganyushin       : Spin-Orbit,Spin-Spin,Magnetic field MRCI      
  Miquel Garcia-Rates    : C-PCM and meta-GGA Hessian, CCSD/C-PCM, Gaussian charge scheme 
  Tiago L. C. Gouveia    : GS-ROHF, GS-ROCIS                             
  Yang Guo               : DLPNO-NEVPT2, F12-NEVPT2, CIM, IAO-localization        
  Andreas Hansen         : Spin unrestricted coupled pair/coupled cluster methods 
  Ingolf Harden          : AUTO-CI MPn and infrastructure                
  Benjamin Helmich-Paris : MC-RPA, TRAH-(SCF,CASSCF), AVAS, COSX integrals, SCF dyn. polar. 
  Lee Huntington         : MR-EOM, pCC                                   
  Robert Izsak           : Overlap fitted RIJCOSX, COSX-SCS-MP3, EOM     
  Riya Kayal             : Wick's Theorem for AUTO-CI, AUTO-CI UHF-CCSDT 
  Emily Kempfer          : AUTO-CI, RHF CISDT and CCSDT                  
  Christian Kollmar      : KDIIS, OOCD, Brueckner-CCSD(T), CCSD density, CASPT2, CASPT2-K, improved NEVPT2 
  Axel Koslowski         : Symmetry handling                             
  Simone Kossmann        : meta-GGA functionals, TD-DFT gradient, OOMP2, (MP2 Hessian; deprecated post 5.0) 
  Lucas Lang             : DCDCAS                                        
  Marvin Lechner         : AUTO-CI (C++ implementation), FIC-MRCC        
  Spencer Leger          : CASSCF response                               
  Dagmar Lenk            : GEPOL surface, SMD, ORCA-2-JSON               
  Dimitrios Liakos       : Extrapolation schemes; Compound Job, initial MDCI parallelization 
  Dimitrios Manganas     : Further ROCIS development; embedding schemes. LFT, Crystal Embedding 
  Dimitrios Pantazis     : SARC Basis sets                               
  Anastasios Papadopoulos: AUTO-CI, single reference methods and gradients 
  Taras Petrenko         : pre 6.0 DFT Hessian and TD-DFT gradient, (ASA, deprecated), ECA, 1-Electron XAS/XES, NRVS 
  Peter Pinski           : DLPNO-MP2, DLPNO-MP2 Gradient                 
  Christoph Reimann      : Effective Core Potentials                     
  Marius Retegan         : Local ZFS, SOC                                
  Christoph Riplinger    : Optimizer, TS searches, QM/MM, DLPNO-CCSD(T), (RO)-DLPNO pert. Triples 
  Michael Roemelt        : Original ROCIS implementation                 
  Masaaki Saitow         : Open-shell DLPNO-CCSD energy and density      
  Barbara Sandhoefer     : DKH picture change effects                    
  Kantharuban Sivalingam : CASSCF convergence/infrastructure, NEVPT2 and variants, FIC-MRCI 
  Bernardo de Souza      : ESD, SOC TD-DFT                               
  Georgi L. Stoychev     : AutoAux, RI-MP2 NMR, DLPNO-MP2 response, X2C  
  Van Anh Tran           : RI-MP2 g-tensors                              
  Willem Van den Heuvel  : Paramagnetic NMR                              
  Zikuan Wang            : NOTCH, Electric field optimization            
  Frank Wennmohs         : Technical directorship and infrastructure     
  Hang Xu                : AUTO-CI-Response properties                   
                                                                         
[FACCTs GmbH]                                                            
  Markus Bursch, Miquel Garcia-Rates, Christoph Riplinger, Bernardo de Souza, Georgi L. Stoychev 
                                                                 
  APM, Basis sets (HGBS, AHGBS, def-TZVP (Ac-Lr), def2-XVPD (La-Lu)), CI-OPT, improved COSX, DLPNO-Multilevel,           
  DOCKER, DRACO, updates on ESD, GOAT, IRC, LR-CPCM, MBIS, meta-GGA TD-DFT gradient, ML-optimized integration grids, 
  MM, NACMEs, nearIR, NEB, NEB-TS, NL-DFT gradient (VV10), 2- and 3-layer-ONIOM, interface openCOSMO-RS, QMMM,   
  Crystal-QMMM, SF, symmetry and pop. for TD-DFT, r2SCAN hybrids, SOLVATOR                                   
                                                                         
[Other institutions]                                                     
  V. Asgeirsson          : NEB                                           
  Christoph Bannwarth    : sTDA-DFT, sTD-DFT, PBEh-3c, B97-3c, D3        
  Sebastian Ehlert       : rSCAN, r2SCAN, r2SCAN-3c, D4, dhf basis sets  
  Marvin Friede          : D4 for Fr, Ra, Ac-Lr                          
  Lars Goerigk           : TD-DFT with DH, B97 family of functionals     
  Stefan Grimme          : VdW corrections, initial TS optimization, DFT functionals, gCP, sTDA/sTD-DF 
  Waldemar Hujo          : DFT-NL                                        
  H. Jonsson             : NEB                                           
  Holger Kruse           : gCP                                           
  Marcel Mueller         : wB97X-3c, vDZP basis set                      
  Hagen Neugebauer       : wr2SCAN                                       
  Tobias Risthaus        : range-separated hybrid DFT                    
  Lukas Wittmann         : regularized MP2, r2SCAN double-hybrids, wr2SCAN        
                                                                         
We gratefully acknowledge several colleagues who have allowed us to      
interface, adapt or use parts of their codes:                            
  Ed Valeev, F. Pavosevic, A. Kumar             : LibInt (2-el integral package), F12 methods 
  Garnet Chan, S. Sharma, J. Yang, R. Olivares  : DMRG                   
  Ulf Ekstrom                                   : XCFun DFT Library      
  Mihaly Kallay                                 : mrcc  (arbitrary order and MRCC methods)
  Frank Weinhold                                : gennbo (NPA and NBO analysis)           
  Simon Mueller                                 : openCOSMO-RS                            
  Christopher J. Cramer and Donald G. Truhlar   : smd solvation model                     
  S Lehtola, MJT Oliveira, MAL Marques          : LibXC Library                           
  Liviu Ungur et al                             : ANISO software                          


 Your calculation uses the libint2 library for the computation of 2-el integrals
 For citations please refer to: http://libint.valeyev.net

 Your ORCA version has been built with support for libXC version: 6.2.2
 For citations please refer to: https://libxc.gitlab.io

 This ORCA versions uses:
   CBLAS   interface :  Fast vector & matrix operations
   LAPACKE interface :  Fast linear algebra routines
   SCALAPACK package :  Parallel linear algebra routines
   Shared memory     :  Shared parallel matrices
   BLAS/LAPACK       :  OpenBLAS 0.3.27  USE64BITINT DYNAMIC_ARCH NO_AFFINITY SkylakeX SINGLE_THREADED
        Core in use  :  SkylakeX
   Copyright (c) 2011-2014, The OpenBLAS Project


Your calculation utilizes the atom-pairwise dispersion correction
with the Becke-Johnson damping scheme (D3BJ)


================================================================================

----- Orbital basis set information -----
Your calculation utilizes the basis: def2-SVP
   F. Weigend and R. Ahlrichs, Phys. Chem. Chem. Phys. 7, 3297 (2005).

----- AuxJ basis set information -----
Your calculation utilizes the auxiliary basis: def2/J
   F. Weigend, Phys. Chem. Chem. Phys. 8, 1057 (2006).

================================================================================
                                        WARNINGS
                       Please study these warnings very carefully!
================================================================================

WARNING: Old DensityContainer found on disk!
         Will remove this file - 
         If you want to keep old densities, please start your calculation with a different basename. 


================================================================================
                                       INPUT FILE
================================================================================
NAME = orca.inp
|  1> ! B3LYP D3BJ def2-SVP def2/J RIJCOSX CPCM TightSCF
|  2> %pal 
|  3> nprocs 8
|  4> end
|  5> 
|  6> ! Noautostart
|  7> ! Engrad
|  8> %cpcm epsilon 4.0 end
|  9> %scf MaxIter 300 Guess PModel end
| 10> *xyz -2 1
| 11> C 59.707627648817926 36.26776339858048 58.32192628619378 
| 12> H 60.429102159143596 36.111580003024315 57.52588974022167 
| 13> H 59.70975934563011 37.19797598921645 58.88189288864983 
| 14> C 58.767776645038055 35.355316128272264 58.63483841782576 
| 15> C 57.80039618948217 35.69484713657482 59.776800830939834 
| 16> O 57.753298246714586 36.84641353312599 60.19871269108626 
| 17> O 56.94276660213257 34.81466194977035 60.30963849871962 
| 18> O 58.67834854214617 34.1499907265243 58.01598457463497 
| 19> C 58.14509931226649 34.027834731503596 56.67423546594981 
| 20> H 58.16238753381088 32.93180445070694 56.506657715654875 
| 21> C 59.059833180771946 34.66451139739964 55.68176273514318 
| 22> H 60.08883816509719 34.28995167386575 55.63103400374682 
| 23> C 58.67808452738793 35.66740174642403 54.86848914924291 
| 24> C 57.32289159070538 36.216752056158825 54.980995409474986 
| 25> H 57.11751824116753 37.107063937567474 54.376206396639525 
| 26> C 56.39517158151195 35.693037026814274 55.80301469826782 
| 27> H 55.405141052115134 36.150136495347404 55.90895882284706 
| 28> C 56.64665437733773 34.444439409006 56.60310691060801 
| 29> H 56.30944418874159 34.60509591706686 57.64484231432181 
| 30> O 55.858339437008425 33.41442257319497 56.00815671746424 
| 31> H 55.91257025043029 32.639580787357716 56.58738166433171 
| 32> C 59.65856919045549 36.29752312528629 53.8484962644547 
| 33> O 60.86051985382622 35.952343825740854 53.94065975348823 
| 34> O 59.14413224367901 37.1015038867509 53.033495047871774 
| 35> C 57.49940000296637 32.31300000166702 60.999500003146935 
| 36> N 57.64997700297414 32.698220001686884 59.735446003081734 
| 37> H 57.33946000295812 33.36072200172107 60.43170000311764 
| 38> H 57.846146002984256 31.743182001637617 59.99911300309533 
| 39> N 57.090501002945274 33.185404001712016 61.91634900319424 
| 40> H 57.2866700029554 32.230366001662745 62.18001600320785 
| 41> H 57.20484900295118 33.4779400017271 60.95642800314472 
| 42> N 57.75772100297969 31.05537600160213 61.34670500316485 
| 43> H 57.872070002985595 31.34791100161722 60.38678400311533 
| 44> H 57.44720400296368 31.717878001636308 62.04295900320077 
| 45> C 63.00440000325037 29.116300001502093 52.2256000026943 
| 46> O 64.18822500331144 29.178076001505286 51.829063002673834 
| 47> O 62.293116003213676 28.088917001449097 52.258159002695976 
| 48> H 62.54642100322675 30.05215000155038 52.5783610027125 
| 49> *
| 50> 
| 51>                          ****END OF INPUT****
================================================================================

                     *******************************
                     * Energy+Gradient Calculation *
                     *******************************

---------------------------------
CARTESIAN COORDINATES (ANGSTROEM)
---------------------------------
  C     59.707628   36.267763   58.321926
  H     60.429102   36.111580   57.525890
  H     59.709759   37.197976   58.881893
  C     58.767777   35.355316   58.634838
  C     57.800396   35.694847   59.776801
  O     57.753298   36.846414   60.198713
  O     56.942767   34.814662   60.309638
  O     58.678349   34.149991   58.015985
  C     58.145099   34.027835   56.674235
  H     58.162388   32.931804   56.506658
  C     59.059833   34.664511   55.681763
  H     60.088838   34.289952   55.631034
  C     58.678085   35.667402   54.868489
  C     57.322892   36.216752   54.980995
  H     57.117518   37.107064   54.376206
  C     56.395172   35.693037   55.803015
  H     55.405141   36.150136   55.908959
  C     56.646654   34.444439   56.603107
  H     56.309444   34.605096   57.644842
  O     55.858339   33.414423   56.008157
  H     55.912570   32.639581   56.587382
  C     59.658569   36.297523   53.848496
  O     60.860520   35.952344   53.940660
  O     59.144132   37.101504   53.033495
  C     57.499400   32.313000   60.999500
  N     57.649977   32.698220   59.735446
  H     57.339460   33.360722   60.431700
  H     57.846146   31.743182   59.999113
  N     57.090501   33.185404   61.916349
  H     57.286670   32.230366   62.180016
  H     57.204849   33.477940   60.956428
  N     57.757721   31.055376   61.346705
  H     57.872070   31.347911   60.386784
  H     57.447204   31.717878   62.042959
  C     63.004400   29.116300   52.225600
  O     64.188225   29.178076   51.829063
  O     62.293116   28.088917   52.258159
  H     62.546421   30.052150   52.578361

----------------------------
CARTESIAN COORDINATES (A.U.)
----------------------------
  NO LB      ZA    FRAG     MASS         X           Y           Z
   0 C     6.0000    0    12.011  112.831064   68.536140  110.212468
   1 H     1.0000    0     1.008  114.194454   68.240996  108.708177
   2 H     1.0000    0     1.008  112.835093   70.293987  111.270652
   3 C     6.0000    0    12.011  111.055003   66.811865  110.803787
   4 C     6.0000    0    12.011  109.226919   67.453485  112.961783
   5 O     8.0000    0    15.999  109.137917   69.629631  113.759081
   6 O     8.0000    0    15.999  107.606234   65.790177  113.968700
   7 O     8.0000    0    15.999  110.886009   64.534130  109.634322
   8 C     6.0000    0    12.011  109.878314   64.303289  107.098784
   9 H     1.0000    0     1.008  109.910984   62.232092  106.782108
  10 C     6.0000    0    12.011  111.606910   65.506433  105.223282
  11 H     1.0000    0     1.008  113.551448   64.798618  105.127419
  12 C     6.0000    0    12.011  110.885510   67.401621  103.686418
  13 C     6.0000    0    12.011  108.324566   68.439743  103.899024
  14 H     1.0000    0     1.008  107.936467   70.122188  102.756138
  15 C     6.0000    0    12.011  106.571430   67.450065  105.452415
  16 H     1.0000    0     1.008  104.700543   68.313858  105.652621
  17 C     6.0000    0    12.011  107.046663   65.090557  106.964370
  18 H     1.0000    0     1.008  106.409428   65.394154  108.932965
  19 O     8.0000    0    15.999  105.556964   63.144108  105.840077
  20 H     1.0000    0     1.008  105.659445   61.679869  106.934654
  21 C     6.0000    0    12.011  112.738357   68.592378  101.758911
  22 O     8.0000    0    15.999  115.009715   67.940084  101.933074
  23 O     8.0000    0    15.999  111.766212   70.111682  100.218782
  24 C     6.0000    0    12.011  108.658119   61.062721  115.272349
  25 N     7.0000    0    14.007  108.942668   61.790681  112.883633
  26 H     1.0000    0     1.008  108.355876   63.042628  114.199363
  27 H     1.0000    0     1.008  109.313374   59.985921  113.381892
  28 N     7.0000    0    14.007  107.885412   62.711325  117.004943
  29 H     1.0000    0     1.008  108.256117   60.906565  117.503201
  30 H     1.0000    0     1.008  108.101498   63.264138  115.190955
  31 N     7.0000    0    14.007  109.146275   58.686156  115.928472
  32 H     1.0000    0     1.008  109.362363   59.238967  114.114484
  33 H     1.0000    0     1.008  108.559483   59.938103  117.244201
  34 C     6.0000    0    12.011  119.061061   55.021833   98.692081
  35 O     8.0000    0    15.999  121.298166   55.138573   97.942735
  36 O     8.0000    0    15.999  117.716929   53.080361   98.753609
  37 H     1.0000    0     1.008  118.195606   56.790333   99.358703

--------------------------------
INTERNAL COORDINATES (ANGSTROEM)
--------------------------------
 C      0   0   0     0.000000000000     0.00000000     0.00000000
 H      1   0   0     1.085630187780     0.00000000     0.00000000
 H      1   2   0     1.085754393855   120.00762262     0.00000000
 C      1   2   3     1.346771670522   122.45704601   178.34696386
 C      4   1   2     1.534661006332   117.57389611   180.26991457
 O      5   4   1     1.227327584474   119.18126898    12.78361151
 O      5   4   1     1.339466480496   123.65750748   189.40679843
 O      4   1   2     1.357861108110   122.78362517     2.52701940
 C      8   4   1     1.448988439893   121.40587796   284.80582616
 H      9   8   4     1.108901962042   102.56366504   183.07975563
 C      9   8   4     1.492346256230   110.74938020    67.87599395
 H     11   9   8     1.096229742549   117.41078238    58.24563808
 C     11   9   8     1.346452751510   123.07098358   238.66439074
 C     13  11   9     1.466625827207   119.64588953     2.67574654
 H     14  13  11     1.095720406365   115.79800164   172.89491708
 C     14  13  11     1.345606762233   122.55706668   354.87045115
 H     16  14  13     1.095593232365   121.31249741   176.86031782
 C     16  14  13     1.504123384580   122.19248740   355.75802250
 H     18  16  14     1.106676952062   109.22413323   133.81246486
 O     18  16  14     1.427004155398   106.56142923   251.65956644
 H     20  18  16     0.968928435581   107.28130888   187.92392739
 C     13  11   9     1.548802315219   121.42154951   180.20328999
 O     22  13  11     1.253925139202   116.51419002   350.87353036
 O     22  13  11     1.255092594212   115.39022869   171.27993125
 C      7   5   4     2.654065210352   126.05041128    45.28495722
 N     25   7   5     1.330000149033    60.24442761   299.79933723
 H     26  25   7     1.009999673225    59.99997568     1.00737416
 H     26  25   7     1.010000071782    59.99998020   181.00738209
 N     25   7   5     1.329999706917    59.76328104   118.78956181
 H     29  25   7     1.010000071782    60.00002195   178.98772224
 H     27  26  25     0.554255947068   150.00011493     0.00000000
 N     25   7   5     1.329999690460   179.09293249   193.91443887
 H     28  26  25     0.554256277808   150.00006318     0.00000000
 H     30  29  25     0.554256020789   150.00001519     0.00000000
 C     12  11   9     6.845739784316   132.92345866    86.11326064
 O     35  12  11     1.249999798932   121.58781457   148.18551473
 O     35  12  11     1.250000338395   111.45996397   317.65045223
 H     35  12  11     1.100000140994    11.53083844    78.54540462

---------------------------
INTERNAL COORDINATES (A.U.)
---------------------------
 C      0   0   0     0.000000000000     0.00000000     0.00000000
 H      1   0   0     2.051543737623     0.00000000     0.00000000
 H      1   2   0     2.051778453087   120.00762262     0.00000000
 C      1   2   3     2.545029622211   122.45704601   178.34696386
 C      4   1   2     2.900089010375   117.57389611   180.26991457
 O      5   4   1     2.319313011263   119.18126898    12.78361151
 O      5   4   1     2.531224813705   123.65750748   189.40679843
 O      4   1   2     2.565985622231   122.78362517     2.52701940
 C      8   4   1     2.738191322616   121.40587796   284.80582616
 H      9   8   4     2.095521017628   102.56366504   183.07975563
 C      9   8   4     2.820125721256   110.74938020    67.87599395
 H     11   9   8     2.071573993277   117.41078238    58.24563808
 C     11   9   8     2.544426952619   123.07098358   238.66439074
 C     13  11   9     2.771521154357   119.64588953     2.67574654
 H     14  13  11     2.070611487378   115.79800164   172.89491708
 C     14  13  11     2.542828264573   122.55706668   354.87045115
 H     16  14  13     2.070371163347   121.31249741   176.86031782
 C     16  14  13     2.842381268483   122.19248740   355.75802250
 H     18  16  14     2.091316358121   109.22413323   133.81246486
 O     18  16  14     2.696647045669   106.56142923   251.65956644
 H     20  18  16     1.831009386617   107.28130888   187.92392739
 C     13  11   9     2.926812211348   121.42154951   180.20328999
 O     22  13  11     2.369575105531   116.51419002   350.87353036
 O     22  13  11     2.371781275773   115.39022869   171.27993125
 C      7   5   4     5.015456389134   126.05041128    45.28495722
 N     25   7   5     2.513336039747    60.24442761   299.79933723
 H     26  25   7     1.908622777745    59.99997568     1.00737416
 H     26  25   7     1.908623530908    59.99998020   181.00738209
 N     25   7   5     2.513335204270    59.76328104   118.78956181
 H     29  25   7     1.908623530908    60.00002195   178.98772224
 H     27  26  25     1.047391948056   150.00011493     0.00000000
 N     25   7   5     2.513335173170   179.09293249   193.91443887
 H     28  26  25     1.047392573064   150.00006318     0.00000000
 H     30  29  25     1.047392087368   150.00001519     0.00000000
 C     12  11   9    12.936573376447   132.92345866    86.11326064
 O     35  12  11     2.362157287439   121.58781457   148.18551473
 O     35  12  11     2.362158306875   111.45996397   317.65045223
 H     35  12  11     2.078699013753    11.53083844    78.54540462

---------------------
BASIS SET INFORMATION
---------------------
There are 4 groups of distinct atoms

 Group   1 Type C   : 7s4p1d contracted to 3s2p1d pattern {511/31/1}
 Group   2 Type H   : 4s1p contracted to 2s1p pattern {31/1}
 Group   3 Type O   : 7s4p1d contracted to 3s2p1d pattern {511/31/1}
 Group   4 Type N   : 7s4p1d contracted to 3s2p1d pattern {511/31/1}

Atom   0C    basis set group =>   1
Atom   1H    basis set group =>   2
Atom   2H    basis set group =>   2
Atom   3C    basis set group =>   1
Atom   4C    basis set group =>   1
Atom   5O    basis set group =>   3
Atom   6O    basis set group =>   3
Atom   7O    basis set group =>   3
Atom   8C    basis set group =>   1
Atom   9H    basis set group =>   2
Atom  10C    basis set group =>   1
Atom  11H    basis set group =>   2
Atom  12C    basis set group =>   1
Atom  13C    basis set group =>   1
Atom  14H    basis set group =>   2
Atom  15C    basis set group =>   1
Atom  16H    basis set group =>   2
Atom  17C    basis set group =>   1
Atom  18H    basis set group =>   2
Atom  19O    basis set group =>   3
Atom  20H    basis set group =>   2
Atom  21C    basis set group =>   1
Atom  22O    basis set group =>   3
Atom  23O    basis set group =>   3
Atom  24C    basis set group =>   1
Atom  25N    basis set group =>   4
Atom  26H    basis set group =>   2
Atom  27H    basis set group =>   2
Atom  28N    basis set group =>   4
Atom  29H    basis set group =>   2
Atom  30H    basis set group =>   2
Atom  31N    basis set group =>   4
Atom  32H    basis set group =>   2
Atom  33H    basis set group =>   2
Atom  34C    basis set group =>   1
Atom  35O    basis set group =>   3
Atom  36O    basis set group =>   3
Atom  37H    basis set group =>   2
---------------------------------
AUXILIARY/J BASIS SET INFORMATION
---------------------------------
There are 4 groups of distinct atoms

 Group   1 Type C   : 12s5p4d2f1g contracted to 6s4p3d1f1g pattern {711111/2111/211/2/1}
 Group   2 Type H   : 5s2p1d contracted to 3s1p1d pattern {311/2/1}
 Group   3 Type O   : 12s5p4d2f1g contracted to 6s4p3d1f1g pattern {711111/2111/211/2/1}
 Group   4 Type N   : 12s5p4d2f1g contracted to 6s4p3d1f1g pattern {711111/2111/211/2/1}

Atom   0C    basis set group =>   1
Atom   1H    basis set group =>   2
Atom   2H    basis set group =>   2
Atom   3C    basis set group =>   1
Atom   4C    basis set group =>   1
Atom   5O    basis set group =>   3
Atom   6O    basis set group =>   3
Atom   7O    basis set group =>   3
Atom   8C    basis set group =>   1
Atom   9H    basis set group =>   2
Atom  10C    basis set group =>   1
Atom  11H    basis set group =>   2
Atom  12C    basis set group =>   1
Atom  13C    basis set group =>   1
Atom  14H    basis set group =>   2
Atom  15C    basis set group =>   1
Atom  16H    basis set group =>   2
Atom  17C    basis set group =>   1
Atom  18H    basis set group =>   2
Atom  19O    basis set group =>   3
Atom  20H    basis set group =>   2
Atom  21C    basis set group =>   1
Atom  22O    basis set group =>   3
Atom  23O    basis set group =>   3
Atom  24C    basis set group =>   1
Atom  25N    basis set group =>   4
Atom  26H    basis set group =>   2
Atom  27H    basis set group =>   2
Atom  28N    basis set group =>   4
Atom  29H    basis set group =>   2
Atom  30H    basis set group =>   2
Atom  31N    basis set group =>   4
Atom  32H    basis set group =>   2
Atom  33H    basis set group =>   2
Atom  34C    basis set group =>   1
Atom  35O    basis set group =>   3
Atom  36O    basis set group =>   3
Atom  37H    basis set group =>   2


           ************************************************************
           *        Program running with 8 parallel MPI-processes     *
           *              working on a common directory               *
           ************************************************************
------------------------------------------------------------------------------
                             ORCA STARTUP CALCULATIONS
                           -- RI-GTO INTEGRALS CHOSEN --
------------------------------------------------------------------------------
------------------------------------------------------------------------------
                   ___                                                        
                  /   \      - P O W E R E D   B Y -                         
                 /     \                                                     
                 |  |  |   _    _      __       _____    __    __             
                 |  |  |  | |  | |    /  \     |  _  \  |  |  /  |          
                  \  \/   | |  | |   /    \    | | | |  |  | /  /          
                 / \  \   | |__| |  /  /\  \   | |_| |  |  |/  /          
                |  |  |   |  __  | /  /__\  \  |    /   |      \           
                |  |  |   | |  | | |   __   |  |    \   |  |\   \          
                \     /   | |  | | |  |  |  |  | |\  \  |  | \   \       
                 \___/    |_|  |_| |__|  |__|  |_| \__\ |__|  \__/        
                                                                              
                      - O R C A' S   B I G   F R I E N D -                    
                                      &                                       
                       - I N T E G R A L  F E E D E R -                       
                                                                              
 v1 FN, 2020, v2 2021, v3 2022-2024                                           
------------------------------------------------------------------------------


----------------------
SHARK INTEGRAL PACKAGE
----------------------

Number of atoms                             ...     38
Number of basis functions                   ...    397
Number of shells                            ...    183
Maximum angular momentum                    ...      2
Integral batch strategy                     ... SHARK/LIBINT Hybrid
RI-J (if used) integral strategy            ... SPLIT-RIJ (Revised 2003 algorithm where possible)
Printlevel                                  ...      1
Contraction scheme used                     ... SEGMENTED contraction
Prescreening option                         ... SCHWARTZ
   Thresh                                   ... 2.500e-11
   Tcut                                     ... 2.500e-12
   Tpresel                                  ... 2.500e-12 
Coulomb Range Separation                    ... NOT USED
Exchange Range Separation                   ... NOT USED
Multipole approximations                    ... NOT USED
Finite Nucleus Model                        ... NOT USED
CABS basis                                  ... NOT available
Auxiliary Coulomb fitting basis             ... AVAILABLE
   # of basis functions in Aux-J            ...   1292
   # of shells in Aux-J                     ...    420
   Maximum angular momentum in Aux-J        ...      4
Auxiliary J/K fitting basis                 ... NOT available
Auxiliary Correlation fitting basis         ... NOT available
Auxiliary 'external' fitting basis          ... NOT available

Checking pre-screening integrals            ... done (  0.0 sec) Dimension = 183
Check shell pair data                       ... done (  0.0 sec)
Shell pair information
Shell pair cut-off parameter TPreSel        ...   2.5e-12
Total number of shell pairs                 ...     16836
Shell pairs after pre-screening             ...     10581
Total number of primitive shell pairs       ...     62120
Primitive shell pairs kept                  ...     24936
          la=0 lb=0:   3236 shell pairs
          la=1 lb=0:   3919 shell pairs
          la=1 lb=1:   1238 shell pairs
          la=2 lb=0:   1279 shell pairs
          la=2 lb=1:    779 shell pairs
          la=2 lb=2:    130 shell pairs

Calculating one electron integrals          ... done (  0.0 sec)
Calculating RI/J V-Matrix + Cholesky decomp.... done (  0.4 sec)
Calculating Nuclear repulsion               ... done (  0.0 sec) ENN=   1875.668946994998 Eh

Diagonalization of the overlap matrix:
Smallest eigenvalue                        ... 3.524e-04
Time for diagonalization                   ...    0.023 sec
Threshold for overlap eigenvalues          ... 1.000e-07
Number of eigenvalues below threshold      ... 0
Time for construction of square roots      ...    0.026 sec
Total time needed                          ...    0.062 sec

-------------------
DFT GRID GENERATION
-------------------

General Integration Accuracy     IntAcc      ... 4.388
Radial Grid Type                 RadialGrid  ... OptM3 with GC (2021)
Angular Grid (max. ang.)         AngularGrid ... 4 (Lebedev-302)
Angular grid pruning method      GridPruning ... 4 (adaptive)
Weight generation scheme         WeightScheme... mBecke (2022)
Basis function cutoff            BFCut       ... 1.0000e-11
Integration weight cutoff        WCut        ... 1.0000e-14
Partially contracted basis set               ... off
Rotationally invariant grid construction     ... off
Angular grids for H and He will be reduced by one unit

Total number of grid points                  ...   185428
Total number of batches                      ...     2913
Average number of points per batch           ...       63
Average number of grid points per atom       ...     4880

--------------------
COSX GRID GENERATION
--------------------

GRIDX 1
-------
General Integration Accuracy     IntAcc      ... 3.816
Radial Grid Type                 RadialGrid  ... OptM3 with GC (2021)
Angular Grid (max. ang.)         AngularGrid ... 1 (Lebedev-50)
Angular grid pruning method      GridPruning ... 4 (adaptive)
Weight generation scheme         WeightScheme... mBecke (2022)
Basis function cutoff            BFCut       ... 1.0000e-11
Integration weight cutoff        WCut        ... 1.0000e-14
Partially contracted basis set               ... on
Rotationally invariant grid construction     ... off
Angular grids for H and He will be reduced by one unit

Total number of grid points                  ...    23577
Total number of batches                      ...      206
Average number of points per batch           ...      114
Average number of grid points per atom       ...      620
UseSFitting                                  ... on

GRIDX 2
-------
General Integration Accuracy     IntAcc      ... 4.020
Radial Grid Type                 RadialGrid  ... OptM3 with GC (2021)
Angular Grid (max. ang.)         AngularGrid ... 2 (Lebedev-110)
Angular grid pruning method      GridPruning ... 4 (adaptive)
Weight generation scheme         WeightScheme... mBecke (2022)
Basis function cutoff            BFCut       ... 1.0000e-11
Integration weight cutoff        WCut        ... 1.0000e-14
Partially contracted basis set               ... on
Rotationally invariant grid construction     ... off
Angular grids for H and He will be reduced by one unit

Total number of grid points                  ...    51867
Total number of batches                      ...      423
Average number of points per batch           ...      122
Average number of grid points per atom       ...     1365
UseSFitting                                  ... on

GRIDX 3
-------
General Integration Accuracy     IntAcc      ... 4.338
Radial Grid Type                 RadialGrid  ... OptM3 with GC (2021)
Angular Grid (max. ang.)         AngularGrid ... 3 (Lebedev-194)
Angular grid pruning method      GridPruning ... 4 (adaptive)
Weight generation scheme         WeightScheme... mBecke (2022)
Basis function cutoff            BFCut       ... 1.0000e-11
Integration weight cutoff        WCut        ... 1.0000e-14
Partially contracted basis set               ... on
Rotationally invariant grid construction     ... off
Angular grids for H and He will be reduced by one unit

Total number of grid points                  ...   113648
Total number of batches                      ...      906
Average number of points per batch           ...      125
Average number of grid points per atom       ...     2991
UseSFitting                                  ... on
Initializing property integral containers    ... done (  0.0 sec)

SHARK setup successfully completed in   3.9 seconds

Maximum memory used throughout the entire STARTUP-calculation: 50.3 MB


           ************************************************************
           *        Program running with 8 parallel MPI-processes     *
           *              working on a common directory               *
           ************************************************************
-------------------------------------------------------------------------------
                                 ORCA GUESS
                   Start orbitals & Density for SCF / CASSCF
-------------------------------------------------------------------------------

------------
SCF SETTINGS
------------
Hamiltonian:
 Density Functional     Method          .... DFT(GTOs)
 Exchange Functional    Exchange        .... B88
   X-Alpha parameter    XAlpha          ....  0.666667
   Becke's b parameter  XBeta           ....  0.004200
 Correlation Functional Correlation     .... LYP
 LDA part of GGA corr.  LDAOpt          .... VWN-5
 Gradients option       PostSCFGGA      .... off
 Hybrid DFT is turned on
   Fraction HF Exchange ScalHFX         ....  0.200000
   Scaling of DF-GGA-X  ScalDFX         ....  0.720000
   Scaling of DF-GGA-C  ScalDFC         ....  0.810000
   Scaling of DF-LDA-C  ScalLDAC        ....  1.000000
   Perturbative correction              ....  0.000000
   NL short-range parameter             ....  4.800000
 RI-approximation to the Coulomb term is turned on
   Number of AuxJ basis functions       .... 1292
   RIJ-COSX (HFX calculated with COS-X)).... on


General Settings:
 Integral files         IntName         .... orca
 Hartree-Fock type      HFTyp           .... RHF
 Total Charge           Charge          ....   -2
 Multiplicity           Mult            ....    1
 Number of Electrons    NEL             ....  174
 Basis Dimension        Dim             ....  397
 Nuclear Repulsion      ENuc            ....   1875.6689469950 Eh

Convergence Acceleration:
 AO-DIIS                CNVDIIS         .... on
   Start iteration      DIISMaxIt       ....    12
   Startup error        DIISStart       ....  0.200000
   # of expansion vecs  DIISMaxEq       ....     5
   Bias factor          DIISBfac        ....   1.050
   Max. coefficient     DIISMaxC        ....  10.000
 MO-DIIS                CNVKDIIS        .... off
 Trust-Rad. Augm. Hess. CNVTRAH         .... auto
   Auto Start mean grad. ratio tolernc. ....  1.125000
   Auto Start start iteration           ....    50
   Auto Start num. interpolation iter.  ....    10
   Max. Number of Micro iterations      ....    24
   Max. Number of Macro iterations      .... Maxiter - #DIIS iter
   Number of Davidson start vectors     ....     2
   Converg. threshold    (grad. norm)   ....   1.000e-05
   Grad. Scal. Fac. for Micro threshold ....   0.100
   Minimum threshold for Micro iter.    ....   1.000e-02
   NR start threshold (gradient norm)   ....   1.000e-04
   Initial trust radius                 ....   0.400
   Minimum AH scaling param. (alpha)    ....   1.000
   Maximum AH scaling param. (alpha)    .... 1000.000
   Quad. conv. algorithm                .... NR
   White noise on init. David. guess    .... on
   Maximum white noise                  ....   0.010
   Pseudo random numbers                .... off
   Inactive MOs                         .... canonical
   Orbital update algorithm             .... Taylor
   Preconditioner                       .... Diag
   Full preconditioner red. dimension   ....   250
 SOSCF                  CNVSOSCF        .... on
   Start iteration      SOSCFMaxIt      ....   150
   Startup grad/error   SOSCFStart      ....  0.003300
   Hessian update       SOSCFHessUp     .... L-BFGS
 Level Shifting         CNVShift        .... on
   Level shift para.    LevelShift      ....    0.2500
   Turn off err/grad.   ShiftErr        ....    0.0010
 Zerner damping         CNVZerner       .... off
 Static damping         CNVDamp         .... on
   Fraction old density DampFac         ....    0.7000
   Max. Damping (<1)    DampMax         ....    0.9800
   Min. Damping (>=0)   DampMin         ....    0.0000
   Turn off err/grad.   DampErr         ....    0.1000

SCF Procedure:
 Maximum # iterations   MaxIter         ....   300
 SCF integral mode      SCFMode         .... Direct
   Integral package                     .... SHARK and LIBINT hybrid scheme
 Reset frequency        DirectResetFreq ....    20
 Integral Threshold     Thresh          ....  2.500e-11 Eh
 Primitive CutOff       TCut            ....  2.500e-12 Eh

Convergence Tolerance:
 Convergence Check Mode ConvCheckMode   .... Total+1el-Energy
 Convergence forced     ConvForced      .... 0
 Energy Change          TolE            ....  1.000e-08 Eh
 1-El. energy change                    ....  1.000e-05 Eh
 Orbital Gradient       TolG            ....  1.000e-05
 Orbital Rotation angle TolX            ....  1.000e-05
 DIIS Error             TolErr          ....  5.000e-07

------------------------------
INITIAL GUESS: MODEL POTENTIAL
------------------------------
Loading Hartree-Fock densities                     ... done
Calculating cut-offs                               ... done
Initializing the effective Hamiltonian             ... done
Setting up the integral package (SHARK)            ... done
Starting the Coulomb interaction                   ... done (   0.2 sec)
Making the grid                                    ... done (   0.4 sec)
Mapping shells                                     ... done
Starting the XC term evaluation                    ... done (   0.1 sec)
  promolecular density results
     # of electrons  =    171.984196781
     EX              =   -151.845144492
     EC              =     -6.033766938
     EX+EC           =   -157.878911430
Transforming the Hamiltonian                       ... done (   0.0 sec)
Diagonalizing the Hamiltonian                      ... done (   0.0 sec)
Back transforming the eigenvectors                 ... done (   0.0 sec)
Now organizing SCF variables                       ... done
                      ------------------
                      INITIAL GUESS DONE (   0.9 sec)
                      ------------------
             **** ENERGY FILE WAS UPDATED (orca.en.tmp) ****
Finished Guess after   1.4 sec
Maximum memory used throughout the entire GUESS-calculation: 29.4 MB


           ************************************************************
           *        Program running with 8 parallel MPI-processes     *
           *              working on a common directory               *
           ************************************************************

-------------------------------------------------------------------------------------------
                                      ORCA LEAN-SCF
                              memory conserving SCF solver
-------------------------------------------------------------------------------------------

--------------------
CPCM SOLVATION MODEL
--------------------
CPCM parameters:
  Epsilon                                         ...       4.0000
  Refrac                                          ...       1.3300
  Rsolv                                           ...       1.3000
  Surface type                                    ... GAUSSIAN VDW
  Discretization scheme                           ... Constant charge density
    Threshold for H atoms                         ...       5.0000 (charges/Ang^2)
    Threshold for non-H atoms                     ...       5.0000 (charges/Ang^2)
  Epsilon function type                           ...         CPCM
Solvent:                                          ... CUSTOM
Radii:
  Scheme                                          ... Element-dependent radii
  Radius for C  used is    3.8550 Bohr (=   2.0400 Ang.)
  Radius for H  used is    2.4944 Bohr (=   1.3200 Ang.)
  Radius for O  used is    3.4469 Bohr (=   1.8240 Ang.)
  Radius for N  used is    3.5149 Bohr (=   1.8600 Ang.)
Calculating surface                               ...        done! (  0.0s)
Cavity surface points                             ...         3209
Cavity Volume                                     ...    2513.3721
Cavity Surface-area                               ...    1355.4746
Calculating surface distance matrix               ...        done! (  0.1s)
Performing Cholesky decomposition & store         ...        done! (  1.0s)
Overall time for CPCM initialization              ...                 1.1s

----------------------------------------D-I-I-S--------------------------------------------
Iteration    Energy (Eh)           Delta-E    RMSDP     MaxDP     DIISErr   Damp  Time(sec)
-------------------------------------------------------------------------------------------
               ***  Starting incremental Fock matrix formation  ***
    1    -1228.7154627984398303     0.00e+00  3.46e-03  1.46e-01  3.07e-01  0.700   5.0
Warning: op=0 Small HOMO/LUMO gap (  -0.046) - skipping pre-diagonalization
         Will do a full diagonalization
    2    -1229.1252151622168185    -4.10e-01  2.41e-03  1.12e-01  1.35e-01  0.700   3.1
                               ***Turning on AO-DIIS***
    3    -1229.2743096651190626    -1.49e-01  9.91e-04  4.15e-02  4.38e-02  0.700   3.0
    4    -1229.3650573620827799    -9.07e-02  1.48e-03  4.95e-02  2.25e-02  0.000   2.9
    5    -1229.5681599887955144    -2.03e-01  3.94e-04  2.26e-02  7.89e-03  0.000   3.0
                              *** Initializing SOSCF ***
---------------------------------------S-O-S-C-F--------------------------------------
Iteration    Energy (Eh)           Delta-E    RMSDP     MaxDP     MaxGrad    Time(sec)
--------------------------------------------------------------------------------------
    6    -1229.5693311587308472    -1.17e-03  1.42e-04  7.63e-03  1.50e-03     2.8
               *** Restarting incremental Fock matrix formation ***
    7    -1229.5693542698020337    -2.31e-05  1.07e-04  6.43e-03  8.17e-04     4.9
    8    -1229.5693750601469674    -2.08e-05  6.68e-05  3.90e-03  6.38e-04     3.7
    9    -1229.5693971498428709    -2.21e-05  3.21e-05  2.12e-03  2.09e-04     3.6
   10    -1229.5693971863931893    -3.66e-08  1.28e-05  5.69e-04  1.91e-04     3.4
   11    -1229.5693997436148948    -2.56e-06  6.22e-06  2.73e-04  3.82e-05     3.2
   12    -1229.5693998715726138    -1.28e-07  2.81e-06  1.83e-04  5.92e-05     3.0
   13    -1229.5693999620523300    -9.05e-08  2.36e-06  9.92e-05  1.58e-05     2.8
   14    -1229.5693999649718080    -2.92e-09  1.20e-06  5.87e-05  1.06e-05     2.8
                 **** Energy Check signals convergence ****

               *****************************************************
               *                     SUCCESS                       *
               *           SCF CONVERGED AFTER  14 CYCLES          *
               *****************************************************

Recomputing exchange energy using gridx3       ... done (    6.693 sec)
Old exchange energy                            :    -30.762064133 Eh
New exchange energy                            :    -30.762015936 Eh
Exchange energy change after final integration :      0.000048197 Eh
Total energy after final integration           :  -1229.569351768 Eh
             **** ENERGY FILE WAS UPDATED (orca.en.tmp) ****

----------------
TOTAL SCF ENERGY
----------------

Total Energy       :      -1229.56935176811726 Eh          -33458.28305 eV

Components:
Nuclear Repulsion  :       1875.66894699499812 Eh           51039.54685 eV
Electronic Energy  :      -3105.01305314761294 Eh          -84491.70065 eV
One Electron Energy:      -5442.31814243365443 Eh         -148093.00556 eV
Two Electron Energy:       2337.30508928604149 Eh           63601.30491 eV
CPCM Dielectric    :         -0.22529381235681 Eh              -6.13056 eV

Virial components:
Potential Energy   :      -2453.45952059685305 Eh          -66762.02767 eV
Kinetic Energy     :       1223.89016882873580 Eh           33303.74462 eV
Virial Ratio       :          2.00464027172047

DFT components:
N(Alpha)           :       86.999939215821 electrons
N(Beta)            :       86.999939215821 electrons
N(Total)           :      173.999878431641 electrons
E(X)               :     -122.576806097886 Eh       
E(C)               :       -7.165390902600 Eh       
E(XC)              :     -129.742197000485 Eh       

CPCM Solvation Model Properties:
Surface-charge          :          1.98021371087490
Corrected charge        :          2.00000000000000
Outlying charge corr.   :          0.00001416579631 Eh               0.00039 eV
Free-energy (cav+disp)  :  This term is not implemented in the current solvation scheme

---------------
SCF CONVERGENCE
---------------

  Last Energy change         ...    2.9195e-09  Tolerance :   1.0000e-08
  Last MAX-Density change    ...    5.8681e-05  Tolerance :   1.0000e-07
  Last RMS-Density change    ...    1.1998e-06  Tolerance :   5.0000e-09
  Last DIIS Error            ...    1.4984e-03  Tolerance :   5.0000e-07
  Last Orbital Gradient      ...    1.0622e-05  Tolerance :   1.0000e-05
  Last Orbital Rotation      ...    6.2004e-05  Tolerance :   1.0000e-05


----------------
ORBITAL ENERGIES
----------------

  NO   OCC          E(Eh)            E(eV) 
   0   2.0000     -19.119077      -520.2565 
   1   2.0000     -19.105958      -519.8996 
   2   2.0000     -19.088033      -519.4118 
   3   2.0000     -19.083364      -519.2847 
   4   2.0000     -18.987251      -516.6694 
   5   2.0000     -18.984215      -516.5867 
   6   2.0000     -18.965782      -516.0852 
   7   2.0000     -18.965627      -516.0809 
   8   2.0000     -14.357492      -390.6872 
   9   2.0000     -14.348561      -390.4442 
  10   2.0000     -14.343162      -390.2973 
  11   2.0000     -10.405378      -283.1447 
  12   2.0000     -10.278130      -279.6821 
  13   2.0000     -10.212750      -277.9031 
  14   2.0000     -10.199562      -277.5442 
  15   2.0000     -10.193330      -277.3746 
  16   2.0000     -10.186233      -277.1815 
  17   2.0000     -10.161126      -276.4983 
  18   2.0000     -10.149314      -276.1769 
  19   2.0000     -10.135545      -275.8022 
  20   2.0000     -10.134647      -275.7778 
  21   2.0000     -10.127127      -275.5731 
  22   2.0000     -10.124557      -275.5032 
  23   2.0000      -1.290885       -35.1268 
  24   2.0000      -1.118324       -30.4311 
  25   2.0000      -1.108424       -30.1618 
  26   2.0000      -1.024452       -27.8768 
  27   2.0000      -1.001162       -27.2430 
  28   2.0000      -0.964554       -26.2468 
  29   2.0000      -0.926510       -25.2116 
  30   2.0000      -0.923921       -25.1412 
  31   2.0000      -0.904218       -24.6050 
  32   2.0000      -0.836063       -22.7504 
  33   2.0000      -0.813638       -22.1402 
  34   2.0000      -0.774512       -21.0755 
  35   2.0000      -0.729669       -19.8553 
  36   2.0000      -0.705600       -19.2003 
  37   2.0000      -0.700223       -19.0540 
  38   2.0000      -0.685797       -18.6615 
  39   2.0000      -0.670363       -18.2415 
  40   2.0000      -0.595852       -16.2139 
  41   2.0000      -0.566877       -15.4255 
  42   2.0000      -0.548480       -14.9249 
  43   2.0000      -0.526243       -14.3198 
  44   2.0000      -0.505660       -13.7597 
  45   2.0000      -0.500063       -13.6074 
  46   2.0000      -0.475441       -12.9374 
  47   2.0000      -0.464658       -12.6440 
  48   2.0000      -0.450883       -12.2692 
  49   2.0000      -0.444072       -12.0838 
  50   2.0000      -0.442885       -12.0515 
  51   2.0000      -0.437533       -11.9059 
  52   2.0000      -0.421045       -11.4572 
  53   2.0000      -0.408304       -11.1105 
  54   2.0000      -0.406655       -11.0656 
  55   2.0000      -0.402568       -10.9544 
  56   2.0000      -0.396997       -10.8028 
  57   2.0000      -0.387350       -10.5403 
  58   2.0000      -0.379331       -10.3221 
  59   2.0000      -0.374183       -10.1820 
  60   2.0000      -0.364112        -9.9080 
  61   2.0000      -0.358906        -9.7663 
  62   2.0000      -0.331085        -9.0093 
  63   2.0000      -0.330497        -8.9933 
  64   2.0000      -0.326538        -8.8856 
  65   2.0000      -0.320877        -8.7315 
  66   2.0000      -0.316151        -8.6029 
  67   2.0000      -0.304229        -8.2785 
  68   2.0000      -0.297234        -8.0881 
  69   2.0000      -0.296264        -8.0617 
  70   2.0000      -0.289836        -7.8868 
  71   2.0000      -0.288584        -7.8528 
  72   2.0000      -0.284379        -7.7383 
  73   2.0000      -0.275333        -7.4922 
  74   2.0000      -0.265370        -7.2211 
  75   2.0000      -0.259600        -7.0641 
  76   2.0000      -0.245248        -6.6735 
  77   2.0000      -0.237333        -6.4582 
  78   2.0000      -0.231093        -6.2884 
  79   2.0000      -0.204829        -5.5737 
  80   2.0000      -0.176415        -4.8005 
  81   2.0000      -0.163652        -4.4532 
  82   2.0000      -0.158662        -4.3174 
  83   2.0000      -0.148240        -4.0338 
  84   2.0000      -0.146681        -3.9914 
  85   2.0000      -0.138414        -3.7664 
  86   2.0000      -0.131777        -3.5858 
  87   0.0000      -0.110977        -3.0198 
  88   0.0000      -0.004911        -0.1336 
  89   0.0000       0.006492         0.1767 
  90   0.0000       0.014172         0.3856 
  91   0.0000       0.087381         2.3778 
  92   0.0000       0.102601         2.7919 
  93   0.0000       0.121105         3.2954 
  94   0.0000       0.123791         3.3685 
  95   0.0000       0.129294         3.5183 
  96   0.0000       0.133966         3.6454 
  97   0.0000       0.141878         3.8607 
*Only the first 10 virtual orbitals were printed.

                    ********************************
                    * MULLIKEN POPULATION ANALYSIS *
                    ********************************

-----------------------
MULLIKEN ATOMIC CHARGES
-----------------------
   0 C :    0.007926
   1 H :    0.049460
   2 H :    0.027116
   3 C :    0.014924
   4 C :    0.222760
   5 O :   -0.251447
   6 O :   -0.311479
   7 O :   -0.348870
   8 C :    0.272208
   9 H :   -0.004526
  10 C :   -0.131198
  11 H :   -0.017311
  12 C :   -0.028516
  13 C :    0.012030
  14 H :   -0.029601
  15 C :   -0.064287
  16 H :   -0.013483
  17 C :    0.220535
  18 H :   -0.013864
  19 O :   -0.338089
  20 H :    0.173997
  21 C :    0.077706
  22 O :   -0.416783
  23 O :   -0.417928
  24 C :    0.683834
  25 N :    0.088644
  26 H :   -0.137915
  27 H :   -0.068299
  28 N :    0.067981
  29 H :   -0.062795
  30 H :   -0.179691
  31 N :   -0.022585
  32 H :   -0.024933
  33 H :   -0.035522
  34 C :    0.094987
  35 O :   -0.474975
  36 O :   -0.476105
  37 H :   -0.143904
Sum of atomic charges:   -2.0000000

--------------------------------
MULLIKEN REDUCED ORBITAL CHARGES
--------------------------------
  0 C s       :     3.129789  s :     3.129789
      pz      :     0.913104  p :     2.837803
      px      :     0.972594
      py      :     0.952105
      dz2     :     0.002718  d :     0.024483
      dxz     :     0.004126
      dyz     :     0.005578
      dx2y2   :     0.006729
      dxy     :     0.005332

  1 H s       :     0.926186  s :     0.926186
      pz      :     0.011101  p :     0.024354
      px      :     0.009041
      py      :     0.004212

  2 H s       :     0.948037  s :     0.948037
      pz      :     0.007680  p :     0.024847
      px      :     0.004652
      py      :     0.012515

  3 C s       :     3.118092  s :     3.118092
      pz      :     0.965935  p :     2.795086
      px      :     1.010072
      py      :     0.819079
      dz2     :     0.009991  d :     0.071898
      dxz     :     0.010477
      dyz     :     0.016752
      dx2y2   :     0.017454
      dxy     :     0.017225

  4 C s       :     3.060105  s :     3.060105
      pz      :     0.879723  p :     2.589778
      px      :     0.857542
      py      :     0.852512
      dz2     :     0.019244  d :     0.127357
      dxz     :     0.013091
      dyz     :     0.033466
      dx2y2   :     0.025661
      dxy     :     0.035894

  5 O s       :     3.734380  s :     3.734380
      pz      :     1.594044  p :     4.500513
      px      :     1.541680
      py      :     1.364789
      dz2     :     0.002181  d :     0.016555
      dxz     :     0.000595
      dyz     :     0.004982
      dx2y2   :     0.004911
      dxy     :     0.003885

  6 O s       :     3.798528  s :     3.798528
      pz      :     1.678556  p :     4.502365
      px      :     1.537044
      py      :     1.286765
      dz2     :     0.001584  d :     0.010586
      dxz     :     0.002159
      dyz     :     0.001671
      dx2y2   :     0.002010
      dxy     :     0.003162

  7 O s       :     3.736654  s :     3.736654
      pz      :     1.369624  p :     4.596750
      px      :     1.776447
      py      :     1.450679
      dz2     :     0.003685  d :     0.015466
      dxz     :     0.002287
      dyz     :     0.003591
      dx2y2   :     0.003781
      dxy     :     0.002122

  8 C s       :     2.941160  s :     2.941160
      pz      :     0.716488  p :     2.721520
      px      :     0.955003
      py      :     1.050029
      dz2     :     0.020927  d :     0.065111
      dxz     :     0.017726
      dyz     :     0.008655
      dx2y2   :     0.011932
      dxy     :     0.005872

  9 H s       :     0.983976  s :     0.983976
      pz      :     0.002646  p :     0.020549
      px      :     0.003748
      py      :     0.014156

 10 C s       :     3.303269  s :     3.303269
      pz      :     0.959513  p :     2.795068
      px      :     0.841406
      py      :     0.994150
      dz2     :     0.005949  d :     0.032861
      dxz     :     0.006443
      dyz     :     0.005694
      dx2y2   :     0.007958
      dxy     :     0.006818

 11 H s       :     0.994270  s :     0.994270
      pz      :     0.004099  p :     0.023041
      px      :     0.013962
      py      :     0.004980

 12 C s       :     3.157803  s :     3.157803
      pz      :     0.964703  p :     2.831534
      px      :     0.937648
      py      :     0.929183
      dz2     :     0.007223  d :     0.039180
      dxz     :     0.008172
      dyz     :     0.006103
      dx2y2   :     0.009006
      dxy     :     0.008675

 13 C s       :     3.231327  s :     3.231327
      pz      :     0.868949  p :     2.721724
      px      :     0.967222
      py      :     0.885553
      dz2     :     0.005603  d :     0.034919
      dxz     :     0.007374
      dyz     :     0.005021
      dx2y2   :     0.008749
      dxy     :     0.008171

 14 H s       :     1.006496  s :     1.006496
      pz      :     0.008052  p :     0.023106
      px      :     0.003832
      py      :     0.011221

 15 C s       :     3.194933  s :     3.194933
      pz      :     0.988020  p :     2.836520
      px      :     0.888447
      py      :     0.960053
      dz2     :     0.006428  d :     0.032834
      dxz     :     0.005072
      dyz     :     0.006173
      dx2y2   :     0.007639
      dxy     :     0.007522

 16 H s       :     0.990795  s :     0.990795
      pz      :     0.004132  p :     0.022689
      px      :     0.012763
      py      :     0.005794

 17 C s       :     2.955269  s :     2.955269
      pz      :     0.972570  p :     2.755613
      px      :     0.930503
      py      :     0.852540
      dz2     :     0.013967  d :     0.068583
      dxz     :     0.007763
      dyz     :     0.013999
      dx2y2   :     0.016576
      dxy     :     0.016277

 18 H s       :     0.992960  s :     0.992960
      pz      :     0.013465  p :     0.020904
      px      :     0.004236
      py      :     0.003203

 19 O s       :     3.737357  s :     3.737357
      pz      :     1.615832  p :     4.588244
      px      :     1.739700
      py      :     1.232712
      dz2     :     0.001535  d :     0.012489
      dxz     :     0.002158
      dyz     :     0.005087
      dx2y2   :     0.001756
      dxy     :     0.001952

 20 H s       :     0.759224  s :     0.759224
      pz      :     0.021723  p :     0.066779
      px      :     0.016516
      py      :     0.028539

 21 C s       :     3.027434  s :     3.027434
      pz      :     0.914620  p :     2.754624
      px      :     0.939784
      py      :     0.900219
      dz2     :     0.022006  d :     0.140236
      dxz     :     0.038455
      dyz     :     0.015026
      dx2y2   :     0.030760
      dxy     :     0.033989

 22 O s       :     3.716546  s :     3.716546
      pz      :     1.689494  p :     4.686044
      px      :     1.384581
      py      :     1.611969
      dz2     :     0.001799  d :     0.014192
      dxz     :     0.003248
      dyz     :     0.000265
      dx2y2   :     0.004768
      dxy     :     0.004112

 23 O s       :     3.719157  s :     3.719157
      pz      :     1.514214  p :     4.684696
      px      :     1.700938
      py      :     1.469544
      dz2     :     0.002930  d :     0.014075
      dxz     :     0.002613
      dyz     :     0.004037
      dx2y2   :     0.002187
      dxy     :     0.002308

 24 C s       :     3.344651  s :     3.344651
      pz      :     0.410203  p :     1.781423
      px      :     1.024347
      py      :     0.346873
      dz2     :     0.043261  d :     0.190091
      dxz     :     0.037326
      dyz     :     0.050968
      dx2y2   :     0.024674
      dxy     :     0.033863

 25 N s       :     3.545111  s :     3.545111
      pz      :     0.962562  p :     3.324808
      px      :     1.448131
      py      :     0.914116
      dz2     :     0.013944  d :     0.041437
      dxz     :     0.009075
      dyz     :     0.012090
      dx2y2   :     0.004060
      dxy     :     0.002268

 26 H s       :     1.002824  s :     1.002824
      pz      :     0.042853  p :     0.135091
      px      :     0.034015
      py      :     0.058223

 27 H s       :     0.963120  s :     0.963120
      pz      :     0.037687  p :     0.105178
      px      :     0.030414
      py      :     0.037077

 28 N s       :     3.500377  s :     3.500377
      pz      :     0.955820  p :     3.392200
      px      :     1.480765
      py      :     0.955615
      dz2     :     0.010130  d :     0.039443
      dxz     :     0.005391
      dyz     :     0.011502
      dx2y2   :     0.007075
      dxy     :     0.005345

 29 H s       :     0.956145  s :     0.956145
      pz      :     0.032452  p :     0.106650
      px      :     0.031471
      py      :     0.042727

 30 H s       :     1.046680  s :     1.046680
      pz      :     0.053320  p :     0.133012
      px      :     0.031722
      py      :     0.047969

 31 N s       :     3.512214  s :     3.512214
      pz      :     0.947693  p :     3.474514
      px      :     1.514426
      py      :     1.012395
      dz2     :     0.007116  d :     0.035857
      dxz     :     0.001730
      dyz     :     0.010930
      dx2y2   :     0.008096
      dxy     :     0.007986

 32 H s       :     0.910630  s :     0.910630
      pz      :     0.044140  p :     0.114303
      px      :     0.029919
      py      :     0.040245

 33 H s       :     0.921873  s :     0.921873
      pz      :     0.035428  p :     0.113649
      px      :     0.031828
      py      :     0.046392

 34 C s       :     3.065042  s :     3.065042
      pz      :     0.872532  p :     2.707330
      px      :     0.916350
      py      :     0.918448
      dz2     :     0.009163  d :     0.132641
      dxz     :     0.024020
      dyz     :     0.015368
      dx2y2   :     0.041038
      dxy     :     0.043053

 35 O s       :     3.746828  s :     3.746828
      pz      :     1.534329  p :     4.714200
      px      :     1.374850
      py      :     1.805022
      dz2     :     0.001886  d :     0.013947
      dxz     :     0.004403
      dyz     :     0.000350
      dx2y2   :     0.004635
      dxy     :     0.002673

 36 O s       :     3.746494  s :     3.746494
      pz      :     1.582835  p :     4.715676
      px      :     1.648377
      py      :     1.484464
      dz2     :     0.001655  d :     0.013935
      dxz     :     0.001242
      dyz     :     0.002717
      dx2y2   :     0.003364
      dxy     :     0.004956

 37 H s       :     1.126500  s :     1.126500
      pz      :     0.003463  p :     0.017404
      px      :     0.003838
      py      :     0.010103



                     *******************************
                     * LOEWDIN POPULATION ANALYSIS *
                     *******************************

----------------------
LOEWDIN ATOMIC CHARGES
----------------------
   0 C :   -0.023432
   1 H :    0.036771
   2 H :    0.030686
   3 C :   -0.028781
   4 C :    0.059065
   5 O :   -0.212509
   6 O :   -0.198122
   7 O :   -0.122008
   8 C :    0.073970
   9 H :    0.031238
  10 C :   -0.037466
  11 H :    0.019814
  12 C :   -0.075042
  13 C :   -0.019800
  14 H :    0.021682
  15 C :   -0.053871
  16 H :    0.020634
  17 C :    0.056008
  18 H :    0.011874
  19 O :   -0.154090
  20 H :    0.078227
  21 C :   -0.042298
  22 O :   -0.387419
  23 O :   -0.384630
  24 C :    0.269733
  25 N :    0.149162
  26 H :   -0.089922
  27 H :   -0.038331
  28 N :    0.121114
  29 H :   -0.037493
  30 H :   -0.085833
  31 N :    0.111288
  32 H :   -0.050997
  33 H :   -0.049225
  34 C :   -0.054330
  35 O :   -0.425810
  36 O :   -0.426888
  37 H :   -0.092970

-------------------------------
LOEWDIN REDUCED ORBITAL CHARGES
-------------------------------
  0 C s       :     2.893070  s :     2.893070
      pz      :     1.000748  p :     3.064736
      px      :     1.018879
      py      :     1.045109
      dz2     :     0.007283  d :     0.065626
      dxz     :     0.011420
      dyz     :     0.014336
      dx2y2   :     0.016818
      dxy     :     0.015769

  1 H s       :     0.890904  s :     0.890904
      pz      :     0.032758  p :     0.072325
      px      :     0.026916
      py      :     0.012651

  2 H s       :     0.895964  s :     0.895964
      pz      :     0.023240  p :     0.073350
      px      :     0.013655
      py      :     0.036454

  3 C s       :     2.878291  s :     2.878291
      pz      :     0.985807  p :     2.980076
      px      :     1.054468
      py      :     0.939801
      dz2     :     0.023498  d :     0.170415
      dxz     :     0.025126
      dyz     :     0.038418
      dx2y2   :     0.040646
      dxy     :     0.042727

  4 C s       :     2.880119  s :     2.880119
      pz      :     0.918841  p :     2.775399
      px      :     0.893061
      py      :     0.963497
      dz2     :     0.041785  d :     0.285418
      dxz     :     0.028639
      dyz     :     0.072985
      dx2y2   :     0.061960
      dxy     :     0.080048

  5 O s       :     3.559052  s :     3.559052
      pz      :     1.602115  p :     4.624892
      px      :     1.541696
      py      :     1.481081
      dz2     :     0.003533  d :     0.028565
      dxz     :     0.000742
      dyz     :     0.008781
      dx2y2   :     0.010218
      dxy     :     0.005291

  6 O s       :     3.581058  s :     3.581058
      pz      :     1.695441  p :     4.596898
      px      :     1.577828
      py      :     1.323628
      dz2     :     0.002468  d :     0.020167
      dxz     :     0.003786
      dyz     :     0.003846
      dx2y2   :     0.003618
      dxy     :     0.006450

  7 O s       :     3.441868  s :     3.441868
      pz      :     1.393737  p :     4.650428
      px      :     1.758608
      py      :     1.498083
      dz2     :     0.007621  d :     0.029712
      dxz     :     0.004425
      dyz     :     0.007590
      dx2y2   :     0.006741
      dxy     :     0.003334

  8 C s       :     2.860200  s :     2.860200
      pz      :     0.831517  p :     2.916089
      px      :     1.024793
      py      :     1.059778
      dz2     :     0.047648  d :     0.149742
      dxz     :     0.039343
      dyz     :     0.018137
      dx2y2   :     0.031202
      dxy     :     0.013411

  9 H s       :     0.904703  s :     0.904703
      pz      :     0.009416  p :     0.064059
      px      :     0.011670
      py      :     0.042973

 10 C s       :     2.880197  s :     2.880197
      pz      :     1.012926  p :     3.069860
      px      :     1.028924
      py      :     1.028010
      dz2     :     0.014429  d :     0.087409
      dxz     :     0.017716
      dyz     :     0.016062
      dx2y2   :     0.019949
      dxy     :     0.019254

 11 H s       :     0.907924  s :     0.907924
      pz      :     0.013688  p :     0.072262
      px      :     0.042942
      py      :     0.015632

 12 C s       :     2.898564  s :     2.898564
      pz      :     1.017209  p :     3.073641
      px      :     1.037937
      py      :     1.018495
      dz2     :     0.016629  d :     0.102837
      dxz     :     0.021286
      dyz     :     0.018126
      dx2y2   :     0.022948
      dxy     :     0.023848

 13 C s       :     2.872778  s :     2.872778
      pz      :     0.991911  p :     3.055547
      px      :     1.048827
      py      :     1.014809
      dz2     :     0.012454  d :     0.091474
      dxz     :     0.019895
      dyz     :     0.013638
      dx2y2   :     0.024415
      dxy     :     0.021072

 14 H s       :     0.907969  s :     0.907969
      pz      :     0.023881  p :     0.070349
      px      :     0.012621
      py      :     0.033847

 15 C s       :     2.879865  s :     2.879865
      pz      :     1.017090  p :     3.088417
      px      :     1.045980
      py      :     1.025347
      dz2     :     0.013888  d :     0.085589
      dxz     :     0.014091
      dyz     :     0.016518
      dx2y2   :     0.021701
      dxy     :     0.019390

 16 H s       :     0.910525  s :     0.910525
      pz      :     0.013424  p :     0.068841
      px      :     0.036199
      py      :     0.019217

 17 C s       :     2.849740  s :     2.849740
      pz      :     1.031552  p :     2.939525
      px      :     0.975820
      py      :     0.932152
      dz2     :     0.033237  d :     0.154728
      dxz     :     0.016232
      dyz     :     0.033251
      dx2y2   :     0.038767
      dxy     :     0.033241

 18 H s       :     0.921071  s :     0.921071
      pz      :     0.040496  p :     0.067055
      px      :     0.013834
      py      :     0.012725

 19 O s       :     3.458092  s :     3.458092
      pz      :     1.654975  p :     4.672383
      px      :     1.725403
      py      :     1.292005
      dz2     :     0.001829  d :     0.023615
      dxz     :     0.002646
      dyz     :     0.010717
      dx2y2   :     0.004328
      dxy     :     0.004095

 20 H s       :     0.743057  s :     0.743057
      pz      :     0.063103  p :     0.178715
      px      :     0.045659
      py      :     0.069953

 21 C s       :     2.855135  s :     2.855135
      pz      :     0.938322  p :     2.862541
      px      :     1.009267
      py      :     0.914952
      dz2     :     0.047978  d :     0.324622
      dxz     :     0.091838
      dyz     :     0.034466
      dx2y2   :     0.068654
      dxy     :     0.081686

 22 O s       :     3.567566  s :     3.567566
      pz      :     1.688680  p :     4.794560
      px      :     1.483190
      py      :     1.622691
      dz2     :     0.003816  d :     0.025292
      dxz     :     0.004676
      dyz     :     0.000438
      dx2y2   :     0.009695
      dxy     :     0.006667

 23 O s       :     3.568489  s :     3.568489
      pz      :     1.554054  p :     4.791006
      px      :     1.727447
      py      :     1.509504
      dz2     :     0.004053  d :     0.025135
      dxz     :     0.004680
      dyz     :     0.008655
      dx2y2   :     0.003355
      dxy     :     0.004392

 24 C s       :     2.626090  s :     2.626090
      pz      :     0.840071  p :     2.657092
      px      :     0.986731
      py      :     0.830290
      dz2     :     0.120403  d :     0.447085
      dxz     :     0.066922
      dyz     :     0.137919
      dx2y2   :     0.060071
      dxy     :     0.061771

 25 N s       :     3.190226  s :     3.190226
      pz      :     1.170662  p :     3.583262
      px      :     1.421692
      py      :     0.990907
      dz2     :     0.024581  d :     0.077351
      dxz     :     0.011653
      dyz     :     0.022591
      dx2y2   :     0.013054
      dxy     :     0.005472

 26 H s       :     0.615101  s :     0.615101
      pz      :     0.215211  p :     0.474821
      px      :     0.081115
      py      :     0.178495

 27 H s       :     0.646643  s :     0.646643
      pz      :     0.145385  p :     0.391688
      px      :     0.064713
      py      :     0.181590

 28 N s       :     3.177154  s :     3.177154
      pz      :     1.078107  p :     3.629114
      px      :     1.465090
      py      :     1.085916
      dz2     :     0.019067  d :     0.072619
      dxz     :     0.007540
      dyz     :     0.022883
      dx2y2   :     0.015015
      dxy     :     0.008114

 29 H s       :     0.642921  s :     0.642921
      pz      :     0.097787  p :     0.394572
      px      :     0.073447
      py      :     0.223338

 30 H s       :     0.621339  s :     0.621339
      pz      :     0.261197  p :     0.464494
      px      :     0.070723
      py      :     0.132575

 31 N s       :     3.146332  s :     3.146332
      pz      :     0.994618  p :     3.672429
      px      :     1.482182
      py      :     1.195629
      dz2     :     0.018236  d :     0.069951
      dxz     :     0.003968
      dyz     :     0.021349
      dx2y2   :     0.015265
      dxy     :     0.011133

 32 H s       :     0.624388  s :     0.624388
      pz      :     0.213837  p :     0.426609
      px      :     0.062830
      py      :     0.149942

 33 H s       :     0.626921  s :     0.626921
      pz      :     0.129453  p :     0.422303
      px      :     0.078435
      py      :     0.214415

 34 C s       :     2.877278  s :     2.877278
      pz      :     0.865603  p :     2.857835
      px      :     0.997832
      py      :     0.994401
      dz2     :     0.021049  d :     0.319217
      dxz     :     0.052345
      dyz     :     0.033462
      dx2y2   :     0.102010
      dxy     :     0.110352

 35 O s       :     3.578338  s :     3.578338
      pz      :     1.537228  p :     4.822768
      px      :     1.481382
      py      :     1.804159
      dz2     :     0.003196  d :     0.024704
      dxz     :     0.007396
      dyz     :     0.000533
      dx2y2   :     0.009413
      dxy     :     0.004167

 36 O s       :     3.578256  s :     3.578256
      pz      :     1.572191  p :     4.823943
      px      :     1.677962
      py      :     1.573790
      dz2     :     0.003683  d :     0.024689
      dxz     :     0.001698
      dyz     :     0.003550
      dx2y2   :     0.005588
      dxy     :     0.010170

 37 H s       :     1.028049  s :     1.028049
      pz      :     0.013139  p :     0.064921
      px      :     0.016251
      py      :     0.035532



                      *****************************
                      * MAYER POPULATION ANALYSIS *
                      *****************************

  NA   - Mulliken gross atomic population
  ZA   - Total nuclear charge
  QA   - Mulliken gross atomic charge
  VA   - Mayer's total valence
  BVA  - Mayer's bonded valence
  FA   - Mayer's free valence

  ATOM       NA         ZA         QA         VA         BVA        FA
  0 C      5.9921     6.0000     0.0079     3.9290     3.9290    -0.0000
  1 H      0.9505     1.0000     0.0495     0.9990     0.9990     0.0000
  2 H      0.9729     1.0000     0.0271     1.0051     1.0051    -0.0000
  3 C      5.9851     6.0000     0.0149     3.9928     3.9928     0.0000
  4 C      5.7772     6.0000     0.2228     4.1900     4.1900    -0.0000
  5 O      8.2514     8.0000    -0.2514     2.2670     2.2670     0.0000
  6 O      8.3115     8.0000    -0.3115     2.0867     2.0867     0.0000
  7 O      8.3489     8.0000    -0.3489     2.1062     2.1062     0.0000
  8 C      5.7278     6.0000     0.2722     3.7573     3.7573     0.0000
  9 H      1.0045     1.0000    -0.0045     1.0074     1.0074     0.0000
 10 C      6.1312     6.0000    -0.1312     3.8980     3.8980    -0.0000
 11 H      1.0173     1.0000    -0.0173     1.0305     1.0305    -0.0000
 12 C      6.0285     6.0000    -0.0285     3.6181     3.6181     0.0000
 13 C      5.9880     6.0000     0.0120     3.8724     3.8724    -0.0000
 14 H      1.0296     1.0000    -0.0296     1.0290     1.0290    -0.0000
 15 C      6.0643     6.0000    -0.0643     3.8338     3.8338    -0.0000
 16 H      1.0135     1.0000    -0.0135     0.9858     0.9858    -0.0000
 17 C      5.7795     6.0000     0.2205     3.9357     3.9357     0.0000
 18 H      1.0139     1.0000    -0.0139     1.0159     1.0159     0.0000
 19 O      8.3381     8.0000    -0.3381     2.0613     2.0613    -0.0000
 20 H      0.8260     1.0000     0.1740     1.0162     1.0162     0.0000
 21 C      5.9223     6.0000     0.0777     4.5532     4.5532     0.0000
 22 O      8.4168     8.0000    -0.4168     2.0785     2.0785    -0.0000
 23 O      8.4179     8.0000    -0.4179     2.0746     2.0746     0.0000
 24 C      5.3162     6.0000     0.6838     2.2132     2.2132    -0.0000
 25 N      6.9114     7.0000     0.0886     2.6537     2.6537    -0.0000
 26 H      1.1379     1.0000    -0.1379     1.2321     1.2321     0.0000
 27 H      1.0683     1.0000    -0.0683     1.2366     1.2366     0.0000
 28 N      6.9320     7.0000     0.0680     2.7319     2.7319    -0.0000
 29 H      1.0628     1.0000    -0.0628     1.2447     1.2447     0.0000
 30 H      1.1797     1.0000    -0.1797     1.4661     1.4661    -0.0000
 31 N      7.0226     7.0000    -0.0226     2.7856     2.7856    -0.0000
 32 H      1.0249     1.0000    -0.0249     1.2441     1.2441     0.0000
 33 H      1.0355     1.0000    -0.0355     1.2465     1.2465     0.0000
 34 C      5.9050     6.0000     0.0950     4.5268     4.5268     0.0000
 35 O      8.4750     8.0000    -0.4750     1.9446     1.9446     0.0000
 36 O      8.4761     8.0000    -0.4761     1.9428     1.9428     0.0000
[...]
B(  0-C ,  1-H ) :   0.9250 B(  0-C ,  2-H ) :   0.9230 B(  0-C ,  3-C ) :   1.9214 
B(  3-C ,  4-C ) :   0.8879 B(  3-C ,  7-O ) :   1.0814 B(  4-C ,  5-O ) :   2.0198 
B(  4-C ,  6-O ) :   1.2275 B(  6-O , 26-H ) :   0.2330 B(  6-O , 30-H ) :   0.2630 
B(  7-O ,  8-C ) :   0.8790 B(  8-C ,  9-H ) :   0.8913 B(  8-C , 10-C ) :   0.9748 
B(  8-C , 17-C ) :   0.9587 B( 10-C , 11-H ) :   0.9591 B( 10-C , 12-C ) :   1.7534 
B( 12-C , 13-C ) :   1.0722 B( 12-C , 21-C ) :   0.8172 B( 13-C , 14-H ) :   0.9741 
B( 13-C , 15-C ) :   1.7668 B( 15-C , 16-H ) :   0.9747 B( 15-C , 17-C ) :   0.9809 
B( 17-C , 18-H ) :   0.9103 B( 17-C , 19-O ) :   1.0416 B( 19-O , 20-H ) :   0.9691 
B( 21-C , 22-O ) :   1.8854 B( 21-C , 23-O ) :   1.8607 B( 22-O , 23-O ) :   0.1262 
B( 24-C , 25-N ) :   0.6540 B( 24-C , 28-N ) :   0.6687 B( 24-C , 31-N ) :   0.6560 
B( 25-N , 26-H ) :   0.6915 B( 25-N , 27-H ) :   0.7999 B( 25-N , 28-N ) :   0.2625 
B( 25-N , 31-N ) :   0.2650 B( 26-H , 30-H ) :   0.3877 B( 27-H , 32-H ) :   0.3467 
B( 28-N , 29-H ) :   0.8206 B( 28-N , 30-H ) :   0.8224 B( 28-N , 31-N ) :   0.2561 
B( 29-H , 33-H ) :   0.3432 B( 31-N , 32-H ) :   0.8052 B( 31-N , 33-H ) :   0.8343 
B( 34-C , 35-O ) :   1.8094 B( 34-C , 36-O ) :   1.8079 B( 34-C , 37-H ) :   0.9095 
B( 35-O , 36-O ) :   0.1122 

-------
TIMINGS
-------

Total SCF time: 0 days 0 hours 0 min 56 sec 

Total time                  ....      56.183 sec
Sum of individual times     ....      55.610 sec  ( 99.0%)

SCF preparation             ....       1.970 sec  (  3.5%)
Fock matrix formation       ....      50.994 sec  ( 90.8%)
  Startup                   ....       0.205 sec  (  0.4% of F)
  Split-RI-J                ....       4.882 sec  (  9.6% of F)
  Chain of spheres X        ....      32.062 sec  ( 62.9% of F)
  XC integration            ....       6.837 sec  ( 13.4% of F)
    XC Preparation          ....       0.000 sec  (  0.0% of XC)
    Basis function eval.    ....       1.965 sec  ( 28.7% of XC)
    Density eval.           ....       1.256 sec  ( 18.4% of XC)
    XC-Functional eval.     ....       0.363 sec  (  5.3% of XC)
    XC-Potential eval.      ....       1.364 sec  ( 20.0% of XC)
  CPCM terms                ....       6.043 sec  ( 11.9% of F)
Diagonalization             ....       0.000 sec  (  0.0%)
Density matrix formation    ....       0.509 sec  (  0.9%)
Total Energy calculation    ....       0.221 sec  (  0.4%)
Population analysis         ....       0.087 sec  (  0.2%)
Orbital Transformation      ....       0.192 sec  (  0.3%)
Orbital Orthonormalization  ....       0.000 sec  (  0.0%)
DIIS solution               ....       0.899 sec  (  1.6%)
SOSCF solution              ....       0.737 sec  (  1.3%)
Finished LeanSCF after  56.4 sec

Maximum memory used throughout the entire LEANSCF-calculation: 49.0 MB


-------------------------------------------------------------------------------
                          DFT DISPERSION CORRECTION                            
                                                                               
                              DFTD3 V3.1  Rev 1                                
                          USING Becke-Johnson damping                          
-------------------------------------------------------------------------------
The B3LYP functional is recognized
Active option DFTDOPT                   ...         4   

molecular C6(AA) [au] = 15271.080643 


            DFT-D V3
 parameters
 s6 scaling factor         :     1.0000 
 a1 scaling factor         :     0.3981 
 s8 scaling factor         :     1.9889 
 a2 scaling factor         :     4.4211 
 ad hoc parameters k1-k3   :    16.0000     1.3333    -4.0000 

 Edisp/kcal,au: -45.118504392143  -0.071900905794 
 E6   /kcal   : -21.903078369 
 E8   /kcal   : -23.215426024 
 % E8         :  51.454334172 

-------------------------   ----------------
Dispersion correction           -0.071900906
-------------------------   ----------------


-------------------------   --------------------
FINAL SINGLE POINT ENERGY     -1229.641252673911
-------------------------   --------------------



           ************************************************************
           *        Program running with 8 parallel MPI-processes     *
           *              working on a common directory               *
           ************************************************************
------------------------------------------------------------------------------
                         ORCA SCF GRADIENT CALCULATION
------------------------------------------------------------------------------

Nuc. rep. gradient        (SHARK) ... done (  0.0 sec)
HCore & Overlap gradient  (SHARK) ... done (  0.3 sec)
Split-RIJ-J gradient      (SHARK) ... done (  1.5 sec)
COSX-gradient                     ... done ( 14.1 sec)
XC gradient                       ... done (  2.9 sec)
CPCM gradient                     ... done (  1.6 sec)
Dispersion correction             ... done (  0.0 sec)

-------------------
DISPERSION GRADIENT
-------------------

   1   C   :    0.000817229    0.000650567    0.000651870
   2   H   :    0.000422144    0.000219470    0.000235566
   3   H   :    0.000200333    0.000235640    0.000079840
   4   C   :    0.000657438    0.000613400    0.000622953
   5   C   :    0.000041242    0.000893278    0.000587640
   6   O   :   -0.000111668    0.000552590    0.000365380
   7   O   :   -0.000371597    0.000402444    0.000491471
   8   O   :    0.000490350   -0.000211027   -0.000002834
   9   C   :    0.000083666   -0.000549437   -0.000382012
  10   H   :    0.000090110   -0.000459842   -0.000160700
  11   C   :    0.000495924   -0.000433685   -0.000500292
  12   H   :    0.000351381   -0.000274326   -0.000171831
  13   C   :    0.000235101    0.000261675   -0.000893744
  14   C   :   -0.000478940    0.000530708   -0.000577921
  15   H   :   -0.000197125    0.000264328   -0.000157248
  16   C   :   -0.000911329    0.000350048   -0.000417499
  17   H   :   -0.000346678    0.000200256   -0.000052835
  18   C   :   -0.000729631   -0.000278189   -0.000428560
  19   H   :   -0.000502411   -0.000046083   -0.000084405
  20   O   :   -0.000577876   -0.000440559   -0.000150640
  21   H   :   -0.000297170   -0.000321765   -0.000111062
  22   C   :    0.000404883    0.000248604   -0.000597091
  23   O   :    0.000445987    0.000100512   -0.000349208
  24   O   :    0.000165783    0.000276021   -0.000421337
  25   C   :   -0.000063315   -0.000475434    0.000381509
  26   N   :   -0.000026260   -0.000678060    0.000449911
  27   H   :   -0.000111294   -0.000156250    0.000257295
  28   H   :    0.000034583   -0.000332662    0.000070809
  29   N   :   -0.000160943   -0.000159223    0.000484773
  30   H   :   -0.000022659   -0.000113162    0.000195320
  31   H   :   -0.000123345   -0.000102722    0.000253336
  32   N   :    0.000047392   -0.000363251    0.000155095
  33   H   :    0.000038554   -0.000249895    0.000035816
  34   H   :   -0.000004033   -0.000133265    0.000153190
  35   C   :    0.000001313    0.000000484   -0.000001584
  36   O   :    0.000051066    0.000009428   -0.000016063
  37   O   :   -0.000034485   -0.000040903    0.000002716
  38   H   :   -0.000003721    0.000010287    0.000002376

Difference to translation invariance:
           :    0.0000000000    0.0000000000    0.0000000000

Difference to rotation invariance:
           :    0.0000000000    0.0000000000   -0.0000000000

Norm of the Dispersion gradient    ...    0.0039095582
RMS gradient                       ...    0.0003661637
MAX gradient                       ...    0.0009113289

------------------
CARTESIAN GRADIENT
------------------

   1   C   :    0.006853715    0.001453764   -0.004312207
   2   H   :   -0.001462545    0.001538452    0.002584505
   3   H   :   -0.002224933   -0.003619901   -0.000698535
   4   C   :    0.001062301   -0.001917498   -0.000175080
   5   C   :    0.001001096   -0.007140188   -0.002549991
   6   O   :    0.000619687    0.009626442    0.003773176
   7   O   :   -0.005476104   -0.006498463    0.003857408
   8   O   :   -0.000838719   -0.000751356   -0.002364736
   9   C   :    0.001784908    0.002648196    0.000955932
  10   H   :    0.000096597   -0.003466477   -0.002201554
  11   C   :   -0.001963453    0.000716817    0.002548501
  12   H   :    0.002044670   -0.000833384    0.001018471
  13   C   :   -0.001503178   -0.002737389   -0.000173121
  14   C   :    0.001627180   -0.001490917   -0.000033354
  15   H   :   -0.000342330    0.002238704   -0.000806362
  16   C   :   -0.001098012   -0.001720208   -0.001143588
  17   H   :   -0.000321659    0.000581172    0.000807857
  18   C   :   -0.001773997   -0.002035691    0.000792457
  19   H   :   -0.000435827    0.000148453   -0.000215970
  20   O   :    0.000101951    0.002217208    0.000369743
  21   H   :    0.000289480   -0.000163371   -0.000255967
  22   C   :   -0.001422134    0.000569172   -0.001419614
  23   O   :    0.002792196   -0.000178429   -0.000266870
  24   O   :    0.000209103   -0.000169313   -0.000375746
  25   C   :    0.002664428   -0.010714987    0.010616969
  26   N   :   -0.032435793    0.056218326    0.124297849
  27   H   :   -0.080699145   -0.078945197    0.499640933
  28   H   :   -0.026122454   -0.242517485    0.443639048
  29   N   :    0.032290592   -0.026354110   -0.135871205
  30   H   :    0.157445066   -0.402859964   -0.262762250
  31   H   :    0.150146618   -0.274734103   -0.401765990
  32   N   :   -0.018449495    0.101562762   -0.039087870
  33   H   :   -0.068089864    0.418633806   -0.208480934
  34   H   :   -0.116106527    0.469950751   -0.030014342
  35   C   :   -0.016353760    0.032548833    0.012499916
  36   O   :   -0.006367020   -0.010739018   -0.000152121
  37   O   :    0.012218803   -0.000136508   -0.004381907
  38   H   :    0.010238561   -0.020928898   -0.007893450

Difference to translation invariance:
           :   -0.0000000002    0.0000000001   -0.0000000002

Difference to rotation invariance:
           :    0.0008950783    0.0002288391    0.0015146908

Norm of the Cartesian gradient     ...    1.2441894277
RMS gradient                       ...    0.1165290165
MAX gradient                       ...    0.4996409332

-------
TIMINGS
-------

Total SCF gradient time     ....       20.459 sec

Densities                   ....       0.003 sec  (  0.0%)
One electron gradient       ....       0.311 sec  (  1.5%)
RI-J Coulomb gradient       ....       1.504 sec  (  7.4%)
COSX gradient               ....      14.084 sec  ( 68.8%)
XC gradient                 ....       2.880 sec  ( 14.1%)
CPCM gradient               ....       1.629 sec  (  8.0%)
   A-Matrix (El+Nuc)        ....       0.364 sec  (  1.8%)
   Potential                ....       1.265 sec  (  6.2%)

Maximum memory used throughout the entire SCFGRAD-calculation: 55.3 MB


           ************************************************************
           *        Program running with 8 parallel MPI-processes     *
           *              working on a common directory               *
           ************************************************************

------------------------------------------------------------------------------
                              ORCA PROPERTY CALCULATIONS
------------------------------------------------------------------------------

GBWName                                 ... orca.gbw
Number of atoms                         ...     38
Number of basis functions               ...    397
Max core memory                         ...   1024 MB

Electric properties:
Dipole moment                           ... YES
Quadrupole moment                       ...  NO
Static polarizability (Dipole/Dipole)   ...  NO
Static polarizability (Dipole/Quad.)    ...  NO
Static polarizability (Quad./Quad.)     ...  NO
Static polarizability (Velocity)        ...  NO

Atomic electric properties:
Dipole moment                           ...  NO
Quadrupole moment                       ...  NO
Static polarizability                   ...  NO

Choice of electric origin               ... Center of mass
Position of electric origin             ...   111.024229    64.124239   107.434949

General magnetic properties:
Magnetizability                         ...  NO

EPR properties:
g-Tensor (aka g-matrix)                 ...  NO
Zero-Field splitting spin-orbit         ...  NO
Zero-field splitting spin-spin          ...  NO
Hyperfine couplings                     ...  NO (   0 nuclei)
Quadrupole couplings                    ...  NO (   0 nuclei)
Contact density                         ...  NO (   0 nuclei)

NMR properties:
Chemical shifts                         ...  NO (   0 nuclei)
Spin-rotation constants                 ...  NO (   0 nuclei)
Spin-spin couplings                     ...  NO (   0 nuclei,    0 pairs)

Choice of magnetic origin               ... GIAO
Position of magnetic origin             ...     0.000000     0.000000     0.000000

Properties with geometric perturbations:
SCF Hessian                             ...  NO
IR spectrum                             ...  NO
VCD spectrum                            ...  NO
X-ray spectroscopy properties:
SCF XES/XAS/RIXS spectra                ...  NO


-------------
DIPOLE MOMENT
-------------

Method             : SCF
Type of density    : Electron Density
Multiplicity       :   1
Irrep              :   0
Energy             : -1229.5693517681172580 Eh
Relativity type    : 
Basis              : AO
                                X                 Y                 Z
Electronic contribution:      0.219081587       6.748392978      -2.778441853
Nuclear contribution   :     -9.876069959      -3.838748310      17.622671855
                        -----------------------------------------
Total Dipole Moment    :     -9.656988372       2.909644668      14.844230002
                        -----------------------------------------
Magnitude (a.u.)       :     17.946437553
Magnitude (Debye)      :     45.616219080



--------------------
Rotational spectrum 
--------------------
 
Rotational constants in cm-1:             0.006939             0.003408             0.002609 
Rotational constants in MHz :           208.026272           102.173076            78.206114 

Dipole components along the rotational axes: 
x,y,z [a.u.] :    17.495052    -3.684860     1.555500 
x,y,z [Debye]:    44.468888    -9.366170     3.953767 

 

Dipole moment calculation done in   0.0 sec 

Maximum memory used throughout the entire PROP-calculation: 22.0 MB

--------------------------------
SUGGESTED CITATIONS FOR THIS RUN
--------------------------------

Below you find a list of papers that are relevant to this ORCA run
We neither can nor want to force you to cite these papers, but we appreciate if you do
You receive ORCA, which is the product of decades of hard work by many enthusiastic individuals, for free
The only thing we kindly ask in return is that you cite our papers,
We deeply appreciate it, if you show your appreciation for ORCA by not just citing the generic ORCA reference.

Please note that relegating all ORCA citations to the supporting information does *not* help us.
SI sections are not indexed - citations you put there will not count into any citation statistics
But we need these citations in order to attract the funding resources that allow us to do what we are doing

Therefore, if you are a happy ORCA user, please consider citing a few of the papers listed below in the main body of your paper

In addition to the list printed below, the program has created the file orca.bibtex that contains the list in bibtex format
You can import this file easily into all common literature databanks and citation aid programs


List of essential papers. We consider these as the minimum necessary citations

  1. Neese,F.
     Software update: the ORCA program system, version 5.0
     WIRES Comput. Molec. Sci., 2022 12(1)e1606
     doi.org/10.1002/wcms.1606

List of papers to cite with high priority. The work reported in these papers was absolutely
necessary for this run to complete.
Our perspective: the developers of density functionals and basis sets usually get cited in chemistry papers
Good! But without the algorithms to do something with them, the functionals or basis sets would not do anything.
Hence, in our opinion, the algorithm design and method developments papers are equally worthy of getting cited

  1. Neese,F.
     An improvement of the resolution of the identity approximation for the formation of the Coulomb matrix
     J. Comp. Chem., 2003 24(14)1740-1747
     doi.org/10.1002/jcc.10318
  2. Neese,F.; Wennmohs,F.; Hansen,A.; Becker,U.
     Efficient, approximate and parallel Hartree-Fock and hybrid DFT calculations. A 'chain-of-spheres' algorithm for the Hartree-Fock exchange
     Chem. Phys., 2009 356(1-3)98-109
     doi.org/10.1016/j.chemphys.2008.10.036
  3. Garcia-Rates,M.; Neese,F.
     Effect of the Solute Cavity on the Solvation Energy and its Derivatives within the Framework of the Gaussian Charge Scheme
     J. Comput. Chem., 2020 41 922-939
     doi.org/10.1002/jcc.26139
  4. Helmich-Paris,B.; de Souza,B.; Neese,F.; Izsák,R.
     An improved chain of spheres for exchange algorithm
     J. Chem. Phys., 2021 155 104109
     doi.org/doi: 10.1063/5.0058766.
  5. Neese,F.
     The SHARK Integral Generation and Digestion System
     J. Comp. Chem., 2022  1-16
     doi.org/10.1002/jcc.26942
  6. Grimme,S.; Antony,J.; Ehrlich,S.; Krieg,H.
     A consistent and accurate ab initio parametrization of density functional dispersion correction (DFT-D) for the 94 elements H-Pu
     J. Chem. Phys., 2010 132 154104
     doi.org/10.1063/1.3382344
  7. Grimme,S.; Ehrlich,S.; Goerigk,L.
     Effect of the damping function in dispersion corrected density functional theory
     J. Comput. Chem., 2011 32(7)1456-1465
     doi.org/10.1002/jcc.21759

List of suggested additional citations. These are papers that are important in the 'surrounding' of 
of this run, or papers that preceded the highly important papers. If you like your results we are grateful for a citation.

  1. Izsak,R.; Neese,F.
     An overlap fitted chain of spheres exchange method
     J. Chem. Phys., 2011 135 144105
     doi.org/10.1063/1.3646921
  2. Izsak,R.; Hansen,A.; Neese,F.
     The resolution of identity and chain of spheres approximations for the LPNO-CCSD singles Fock term
     Molec. Phys., 2012 110 2413-2417
     doi.org/10.1080/00268976.2012.687466
  3. Neese,F.
     The ORCA program system
     WIRES Comput. Molec. Sci., 2012 2(1)73-78
     doi.org/10.1002/wcms.81
  4. Izsak,R.; Neese,F.; Klopper,W.
     Robust fitting techniques in the chain of spheres approximation to the Fock exchange: The role of the complementary space
     J. Chem. Phys., 2013 139 
     doi.org/10.1063/1.4819264
  5. Neese,F.
     Software update: the ORCA program system, version 4.0
     WIRES Comput. Molec. Sci., 2018 8(1)1-6
     doi.org/10.1002/wcms.1327
  6. Neese,F.; Wennmohs,F.; Becker,U.; Riplinger,C.
     The ORCA quantum chemistry program package
     J. Chem. Phys., 2020 152 Art. No. L224108
     doi.org/10.1063/5.0004608

List of optional additional citations

  1. Neese,F.
     Approximate second-order SCF convergence for spin unrestricted wavefunctions
     Chem. Phys. Lett., 2000 325(1-3)93-98
     doi.org/10.1016/s0009-2614(00)00662-x

Timings for individual modules:

Sum of individual times          ...       88.153 sec (=   1.469 min)
Startup calculation              ...        5.195 sec (=   0.087 min)   5.9 %
SCF iterations                   ...       59.625 sec (=   0.994 min)  67.6 %
Property calculations            ...        1.439 sec (=   0.024 min)   1.6 %
SCF Gradient evaluation          ...       21.894 sec (=   0.365 min)  24.8 %
                             ****ORCA TERMINATED NORMALLY****
TOTAL RUN TIME: 0 days 0 hours 1 minutes 32 seconds 183 msec
