
                                 *****************
                                 * O   R   C   A *
                                 *****************

                                            #,                                       
                                            ###                                      
                                            ####                                     
                                            #####                                    
                                            ######                                   
                                           ########,                                 
                                     ,,################,,,,,                         
                               ,,#################################,,                 
                          ,,##########################################,,             
                       ,#########################################, ''#####,          
                    ,#############################################,,   '####,        
                  ,##################################################,,,,####,       
                ,###########''''           ''''###############################       
              ,#####''   ,,,,##########,,,,          '''####'''          '####       
            ,##' ,,,,###########################,,,                        '##       
           ' ,,###''''                  '''############,,,                           
         ,,##''                                '''############,,,,        ,,,,,,###''
      ,#''                                            '''#######################'''  
     '                                                          ''''####''''         
             ,#######,   #######,   ,#######,      ##                                
            ,#'     '#,  ##    ##  ,#'     '#,    #''#        ,####,   ,####,        
            ##       ##  ##   ,#'  ##            #'  '#       #'       #'  '#        
            ##       ##  #######   ##           ,######,      #####,   #    #        
            '#,     ,#'  ##    ##  '#,     ,#' ,#      #,     #,   #   #,  ,#        
             '#######'   ##     ##  '#######'  #'      '#     '####' # '####'        



                #########################################################
                #                        -***-                          #
                #          Department of theory and spectroscopy        #
                #                                                       #
                #                      Frank Neese                      #
                #                                                       #
                #     Directorship, Architecture, Infrastructure        #
                #                    SHARK, DRIVERS                     #
                #        Core code/Algorithms in most modules           #
                #                                                       #
                #        Max Planck Institute fuer Kohlenforschung      #
                #                Kaiser Wilhelm Platz 1                 #
                #                 D-45470 Muelheim/Ruhr                 #
                #                      Germany                          #
                #                                                       #
                #                  All rights reserved                  #
                #                        -***-                          #
                #########################################################


                         Program Version 6.0.1  -  RELEASE   -


 With contributions from (in alphabetic order):
[Max-Planck-Institut fuer Kohlenforschung]                               
  Daniel Aravena         : Magnetic Suceptibility                        
  Michael Atanasov       : Ab Initio Ligand Field Theory (pilot matlab implementation)
  Alexander A. Auer      : GIAO ZORA, VPT2 properties, NMR spectrum      
  Ute Becker             : All parallelization in ORCA, NUMFREQ, NUMCALC 
  Giovanni Bistoni       : ED, misc. LED, open-shell LED, HFLD           
  Martin Brehm           : Molecular dynamics                            
  Dmytro Bykov           : pre 5.0 version of the SCF Hessian            
  Marcos Casanova-Páez   : Triplet and SCS-CIS(D). UHF-(DLPNO)-IP/EA/STEOM-CCSD. UHF-CVS-IP/STEOM-CCSD   
  Vijay G. Chilkuri      : MRCI spin determinant printing, contributions to CSF-ICE 
  Pauline Colinet        : FMM embedding                                 
  Dipayan Datta          : RHF DLPNO-CCSD density                        
  Achintya Kumar Dutta   : EOM-CC, STEOM-CC                              
  Nicolas Foglia         : Exact transition moments, OPA infrastructure, MCD improvements    
  Dmitry Ganyushin       : Spin-Orbit,Spin-Spin,Magnetic field MRCI      
  Miquel Garcia-Rates    : C-PCM and meta-GGA Hessian, CCSD/C-PCM, Gaussian charge scheme 
  Tiago L. C. Gouveia    : GS-ROHF, GS-ROCIS                             
  Yang Guo               : DLPNO-NEVPT2, F12-NEVPT2, CIM, IAO-localization        
  Andreas Hansen         : Spin unrestricted coupled pair/coupled cluster methods 
  Ingolf Harden          : AUTO-CI MPn and infrastructure                
  Benjamin Helmich-Paris : MC-RPA, TRAH-(SCF,CASSCF), AVAS, COSX integrals, SCF dyn. polar. 
  Lee Huntington         : MR-EOM, pCC                                   
  Robert Izsak           : Overlap fitted RIJCOSX, COSX-SCS-MP3, EOM     
  Riya Kayal             : Wick's Theorem for AUTO-CI, AUTO-CI UHF-CCSDT 
  Emily Kempfer          : AUTO-CI, RHF CISDT and CCSDT                  
  Christian Kollmar      : KDIIS, OOCD, Brueckner-CCSD(T), CCSD density, CASPT2, CASPT2-K, improved NEVPT2 
  Axel Koslowski         : Symmetry handling                             
  Simone Kossmann        : meta-GGA functionals, TD-DFT gradient, OOMP2, (MP2 Hessian; deprecated post 5.0) 
  Lucas Lang             : DCDCAS                                        
  Marvin Lechner         : AUTO-CI (C++ implementation), FIC-MRCC        
  Spencer Leger          : CASSCF response                               
  Dagmar Lenk            : GEPOL surface, SMD, ORCA-2-JSON               
  Dimitrios Liakos       : Extrapolation schemes; Compound Job, initial MDCI parallelization 
  Dimitrios Manganas     : Further ROCIS development; embedding schemes. LFT, Crystal Embedding 
  Dimitrios Pantazis     : SARC Basis sets                               
  Anastasios Papadopoulos: AUTO-CI, single reference methods and gradients 
  Taras Petrenko         : pre 6.0 DFT Hessian and TD-DFT gradient, (ASA, deprecated), ECA, 1-Electron XAS/XES, NRVS 
  Peter Pinski           : DLPNO-MP2, DLPNO-MP2 Gradient                 
  Christoph Reimann      : Effective Core Potentials                     
  Marius Retegan         : Local ZFS, SOC                                
  Christoph Riplinger    : Optimizer, TS searches, QM/MM, DLPNO-CCSD(T), (RO)-DLPNO pert. Triples 
  Michael Roemelt        : Original ROCIS implementation                 
  Masaaki Saitow         : Open-shell DLPNO-CCSD energy and density      
  Barbara Sandhoefer     : DKH picture change effects                    
  Kantharuban Sivalingam : CASSCF convergence/infrastructure, NEVPT2 and variants, FIC-MRCI 
  Bernardo de Souza      : ESD, SOC TD-DFT                               
  Georgi L. Stoychev     : AutoAux, RI-MP2 NMR, DLPNO-MP2 response, X2C  
  Van Anh Tran           : RI-MP2 g-tensors                              
  Willem Van den Heuvel  : Paramagnetic NMR                              
  Zikuan Wang            : NOTCH, Electric field optimization            
  Frank Wennmohs         : Technical directorship and infrastructure     
  Hang Xu                : AUTO-CI-Response properties                   
                                                                         
[FACCTs GmbH]                                                            
  Markus Bursch, Miquel Garcia-Rates, Christoph Riplinger, Bernardo de Souza, Georgi L. Stoychev 
                                                                 
  APM, Basis sets (HGBS, AHGBS, def-TZVP (Ac-Lr), def2-XVPD (La-Lu)), CI-OPT, improved COSX, DLPNO-Multilevel,           
  DOCKER, DRACO, updates on ESD, GOAT, IRC, LR-CPCM, MBIS, meta-GGA TD-DFT gradient, ML-optimized integration grids, 
  MM, NACMEs, nearIR, NEB, NEB-TS, NL-DFT gradient (VV10), 2- and 3-layer-ONIOM, interface openCOSMO-RS, QMMM,   
  Crystal-QMMM, SF, symmetry and pop. for TD-DFT, r2SCAN hybrids, SOLVATOR                                   
                                                                         
[Other institutions]                                                     
  V. Asgeirsson          : NEB                                           
  Christoph Bannwarth    : sTDA-DFT, sTD-DFT, PBEh-3c, B97-3c, D3        
  Sebastian Ehlert       : rSCAN, r2SCAN, r2SCAN-3c, D4, dhf basis sets  
  Marvin Friede          : D4 for Fr, Ra, Ac-Lr                          
  Lars Goerigk           : TD-DFT with DH, B97 family of functionals     
  Stefan Grimme          : VdW corrections, initial TS optimization, DFT functionals, gCP, sTDA/sTD-DF 
  Waldemar Hujo          : DFT-NL                                        
  H. Jonsson             : NEB                                           
  Holger Kruse           : gCP                                           
  Marcel Mueller         : wB97X-3c, vDZP basis set                      
  Hagen Neugebauer       : wr2SCAN                                       
  Tobias Risthaus        : range-separated hybrid DFT                    
  Lukas Wittmann         : regularized MP2, r2SCAN double-hybrids, wr2SCAN        
                                                                         
We gratefully acknowledge several colleagues who have allowed us to      
interface, adapt or use parts of their codes:                            
  Ed Valeev, F. Pavosevic, A. Kumar             : LibInt (2-el integral package), F12 methods 
  Garnet Chan, S. Sharma, J. Yang, R. Olivares  : DMRG                   
  Ulf Ekstrom                                   : XCFun DFT Library      
  Mihaly Kallay                                 : mrcc  (arbitrary order and MRCC methods)
  Frank Weinhold                                : gennbo (NPA and NBO analysis)           
  Simon Mueller                                 : openCOSMO-RS                            
  Christopher J. Cramer and Donald G. Truhlar   : smd solvation model                     
  S Lehtola, MJT Oliveira, MAL Marques          : LibXC Library                           
  Liviu Ungur et al                             : ANISO software                          


 Your calculation uses the libint2 library for the computation of 2-el integrals
 For citations please refer to: http://libint.valeyev.net

 Your ORCA version has been built with support for libXC version: 6.2.2
 For citations please refer to: https://libxc.gitlab.io

 This ORCA versions uses:
   CBLAS   interface :  Fast vector & matrix operations
   LAPACKE interface :  Fast linear algebra routines
   SCALAPACK package :  Parallel linear algebra routines
   Shared memory     :  Shared parallel matrices
   BLAS/LAPACK       :  OpenBLAS 0.3.27  USE64BITINT DYNAMIC_ARCH NO_AFFINITY Bulldozer SINGLE_THREADED
        Core in use  :  Bulldozer
   Copyright (c) 2011-2014, The OpenBLAS Project


NOTE: MaxCore=3000 MB was set to SCF,MP2,MDCI,CIPSI,MRCI and CIS
      => If you want to overwrite this, your respective input block should be placed after the MaxCore statement
Your calculation utilizes the atom-pairwise dispersion correction
with the Becke-Johnson damping scheme (D3BJ)


================================================================================

----- Orbital basis set information -----
Your calculation utilizes the basis: def2-SVP
   F. Weigend and R. Ahlrichs, Phys. Chem. Chem. Phys. 7, 3297 (2005).

----- AuxJ basis set information -----
Your calculation utilizes the auxiliary basis: def2/J
   F. Weigend, Phys. Chem. Chem. Phys. 8, 1057 (2006).

================================================================================
                                        WARNINGS
                       Please study these warnings very carefully!
================================================================================


================================================================================
                                       INPUT FILE
================================================================================
NAME = sp_product.inp
|  1> ! B3LYP D3BJ def2-SVP def2/J RIJCOSX CPCM KeepDens
|  2> %maxcore 3000
|  3> %pal nprocs 8 end
|  4> %cpcm epsilon 4.0 end
|  5> %scf MaxIter 300 end
|  6> * xyz -2 1
|  7> C     60.09235600    34.05698400    56.35459400
|  8> H     60.75786200    33.54493000    57.06277500
|  9> H     60.60767600    34.92579300    55.92139700
| 10> C     58.84472100    34.46586700    57.09584100
| 11> C     58.15893600    35.83017900    56.83923500
| 12> O     58.89351900    36.79981500    56.52890700
| 13> O     56.91720000    35.84773100    56.99285000
| 14> O     58.30761300    33.70221400    57.87530200
| 15> C     57.54869800    31.93814700    55.69973500
| 16> H     56.94039100    31.18373000    56.20354900
| 17> C     58.87843200    31.92001500    55.80004300
| 18> H     59.39930500    31.16524100    56.38948800
| 19> C     59.74448700    33.00897700    55.21984600
| 20> C     59.02855000    33.70758900    54.08798100
| 21> H     59.67081200    34.19274300    53.34636500
| 22> C     57.69538100    33.71680400    53.97181000
| 23> H     57.19503200    34.24640100    53.15488700
| 24> C     56.81046800    33.03513000    54.98142600
| 25> H     56.51340100    33.81033500    55.71495500
| 26> O     55.64047900    32.54363400    54.33839200
| 27> H     55.03250400    32.22088500    55.02019200
| 28> C     61.07710500    32.33266100    54.73936100
| 29> O     61.76525900    31.76673800    55.62547500
| 30> O     61.33680800    32.35822100    53.51747800
| 31> *
| 32> 
| 33>                          ****END OF INPUT****
================================================================================

                       ****************************
                       * Single Point Calculation *
                       ****************************

---------------------------------
CARTESIAN COORDINATES (ANGSTROEM)
---------------------------------
  C     60.092356   34.056984   56.354594
  H     60.757862   33.544930   57.062775
  H     60.607676   34.925793   55.921397
  C     58.844721   34.465867   57.095841
  C     58.158936   35.830179   56.839235
  O     58.893519   36.799815   56.528907
  O     56.917200   35.847731   56.992850
  O     58.307613   33.702214   57.875302
  C     57.548698   31.938147   55.699735
  H     56.940391   31.183730   56.203549
  C     58.878432   31.920015   55.800043
  H     59.399305   31.165241   56.389488
  C     59.744487   33.008977   55.219846
  C     59.028550   33.707589   54.087981
  H     59.670812   34.192743   53.346365
  C     57.695381   33.716804   53.971810
  H     57.195032   34.246401   53.154887
  C     56.810468   33.035130   54.981426
  H     56.513401   33.810335   55.714955
  O     55.640479   32.543634   54.338392
  H     55.032504   32.220885   55.020192
  C     61.077105   32.332661   54.739361
  O     61.765259   31.766738   55.625475
  O     61.336808   32.358221   53.517478

----------------------------
CARTESIAN COORDINATES (A.U.)
----------------------------
  NO LB      ZA    FRAG     MASS         X           Y           Z
   0 C     6.0000    0    12.011  113.558096   64.358373  106.494749
   1 H     1.0000    0     1.008  114.815720   63.390731  107.833017
   2 H     1.0000    0     1.008  114.531909   66.000184  105.676125
   3 C     6.0000    0    12.011  111.200407   65.131050  107.895503
   4 C     6.0000    0    12.011  109.904461   67.709226  107.410588
   5 O     8.0000    0    15.999  111.292622   69.541572  106.824153
   6 O     8.0000    0    15.999  107.557920   67.742394  107.700878
   7 O     8.0000    0    15.999  110.185420   63.687955  109.368471
   8 C     6.0000    0    12.011  108.751279   60.354351  105.257245
   9 H     1.0000    0     1.008  107.601745   58.928710  106.209315
  10 C     6.0000    0    12.011  111.264112   60.320087  105.446800
  11 H     1.0000    0     1.008  112.248419   58.893770  106.560689
  12 C     6.0000    0    12.011  112.900718   62.377926  104.350386
  13 C     6.0000    0    12.011  111.547794   63.698112  102.211471
  14 H     1.0000    0     1.008  112.761493   64.614920  100.810020
  15 C     6.0000    0    12.011  109.028469   63.715526  101.991940
  16 H     1.0000    0     1.008  108.082947   64.716319  100.448179
  17 C     6.0000    0    12.011  107.356226   62.427348  103.899838
  18 H     1.0000    0     1.008  106.794851   63.892274  105.286007
  19 O     8.0000    0    15.999  105.145267   61.498556  102.684679
  20 H     1.0000    0     1.008  103.996361   60.888648  103.973095
  21 C     6.0000    0    12.011  115.419002   61.099874  103.442401
  22 O     8.0000    0    15.999  116.719424   60.030435  105.116914
  23 O     8.0000    0    15.999  115.909769   61.148176  101.133377

--------------------------------
INTERNAL COORDINATES (ANGSTROEM)
--------------------------------
 C      0   0   0     0.000000000000     0.00000000     0.00000000
 H      1   0   0     1.098461589548     0.00000000     0.00000000
 H      1   2   0     1.099110286409   109.78698018     0.00000000
 C      1   2   3     1.507721962407   108.10754442   238.10179376
 C      4   1   2     1.548384622374   121.59948918   140.32174127
 O      5   4   1     1.255432046735   117.53864483   327.72138291
 O      5   4   1     1.251324871736   115.56432106   149.08715400
 O      4   1   2     1.216227922140   120.67977853   316.90378392
 C      8   4   1     2.901891819004    90.95760493   292.24654346
 H      9   8   4     1.092250412101   102.69242948   185.09396939
 C      9   8   4     1.333635248126    72.00809656    66.55081892
 H     11   9   8     1.090154980372   121.76798256    93.77119460
 C     11   9   8     1.507487333041   122.27966865   279.72805629
 C     13  11   9     1.510543906260   110.49891247   335.78526542
 H     14  13  11     1.094472097322   115.76072218   204.77637574
 C     14  13  11     1.338252666736   122.71019010    23.42569354
 H     16  14  13     1.094616504598   121.56601137   178.73505662
 C      9   8   4     1.504766777501    92.46532995   303.25113900
 H     18   9   8     1.107816044456   109.00241103   336.40747277
 O     18   9   8     1.422650801600   111.55365888   216.37505157
 H     20  18   9     0.968840419071   108.24531154    64.09239291
 C     13  11   9     1.569757911592   107.11519686   213.71427063
 O     22  13  11     1.256591735864   116.30152023   298.78179007
 O     22  13  11     1.249438684969   117.83841463   116.20229709

---------------------------
INTERNAL COORDINATES (A.U.)
---------------------------
 C      0   0   0     0.000000000000     0.00000000     0.00000000
 H      1   0   0     2.075791572878     0.00000000     0.00000000
 H      1   2   0     2.077017432289   109.78698018     0.00000000
 C      1   2   3     2.849181595047   108.10754442   238.10179376
 C      4   1   2     2.926022886262   121.59948918   140.32174127
 O      5   4   1     2.372422748077   117.53864483   327.72138291
 O      5   4   1     2.364661312145   115.56432106   149.08715400
 O      4   1   2     2.298337689273   120.67977853   316.90378392
 C      8   4   1     5.483780808184    90.95760493   292.24654346
 H      9   8   4     2.064054148533   102.69242948   185.09396939
 C      9   8   4     2.520205381502    72.00809656    66.55081892
 H     11   9   8     2.060094356433   121.76798256    93.77119460
 C     11   9   8     2.848738209802   122.27966865   279.72805629
 C     13  11   9     2.854514296094   110.49891247   335.78526542
 H     14  13  11     2.068252525157   115.76072218   204.77637574
 C     14  13  11     2.528931038122   122.71019010    23.42569354
 H     16  14  13     2.068525415361   121.56601137   178.73505662
 C      9   8   4     2.843597104900    92.46532995   303.25113900
 H     18   9   8     2.093468930787   109.00241103   336.40747277
 O     18   9   8     2.688420399227   111.55365888   216.37505157
 H     20  18   9     1.830843059518   108.24531154    64.09239291
 C     13  11   9     2.966412549465   107.11519686   213.71427063
 O     22  13  11     2.374614242931   116.30152023   298.78179007
 O     22  13  11     2.361096935719   117.83841463   116.20229709

---------------------
BASIS SET INFORMATION
---------------------
There are 3 groups of distinct atoms

 Group   1 Type C   : 7s4p1d contracted to 3s2p1d pattern {511/31/1}
 Group   2 Type H   : 4s1p contracted to 2s1p pattern {31/1}
 Group   3 Type O   : 7s4p1d contracted to 3s2p1d pattern {511/31/1}

Atom   0C    basis set group =>   1
Atom   1H    basis set group =>   2
Atom   2H    basis set group =>   2
Atom   3C    basis set group =>   1
Atom   4C    basis set group =>   1
Atom   5O    basis set group =>   3
Atom   6O    basis set group =>   3
Atom   7O    basis set group =>   3
Atom   8C    basis set group =>   1
Atom   9H    basis set group =>   2
Atom  10C    basis set group =>   1
Atom  11H    basis set group =>   2
Atom  12C    basis set group =>   1
Atom  13C    basis set group =>   1
Atom  14H    basis set group =>   2
Atom  15C    basis set group =>   1
Atom  16H    basis set group =>   2
Atom  17C    basis set group =>   1
Atom  18H    basis set group =>   2
Atom  19O    basis set group =>   3
Atom  20H    basis set group =>   2
Atom  21C    basis set group =>   1
Atom  22O    basis set group =>   3
Atom  23O    basis set group =>   3
---------------------------------
AUXILIARY/J BASIS SET INFORMATION
---------------------------------
There are 3 groups of distinct atoms

 Group   1 Type C   : 12s5p4d2f1g contracted to 6s4p3d1f1g pattern {711111/2111/211/2/1}
 Group   2 Type H   : 5s2p1d contracted to 3s1p1d pattern {311/2/1}
 Group   3 Type O   : 12s5p4d2f1g contracted to 6s4p3d1f1g pattern {711111/2111/211/2/1}

Atom   0C    basis set group =>   1
Atom   1H    basis set group =>   2
Atom   2H    basis set group =>   2
Atom   3C    basis set group =>   1
Atom   4C    basis set group =>   1
Atom   5O    basis set group =>   3
Atom   6O    basis set group =>   3
Atom   7O    basis set group =>   3
Atom   8C    basis set group =>   1
Atom   9H    basis set group =>   2
Atom  10C    basis set group =>   1
Atom  11H    basis set group =>   2
Atom  12C    basis set group =>   1
Atom  13C    basis set group =>   1
Atom  14H    basis set group =>   2
Atom  15C    basis set group =>   1
Atom  16H    basis set group =>   2
Atom  17C    basis set group =>   1
Atom  18H    basis set group =>   2
Atom  19O    basis set group =>   3
Atom  20H    basis set group =>   2
Atom  21C    basis set group =>   1
Atom  22O    basis set group =>   3
Atom  23O    basis set group =>   3


           ************************************************************
           *        Program running with 8 parallel MPI-processes     *
           *              working on a common directory               *
           ************************************************************
------------------------------------------------------------------------------
                             ORCA STARTUP CALCULATIONS
                           -- RI-GTO INTEGRALS CHOSEN --
------------------------------------------------------------------------------
------------------------------------------------------------------------------
                   ___                                                        
                  /   \      - P O W E R E D   B Y -                         
                 /     \                                                     
                 |  |  |   _    _      __       _____    __    __             
                 |  |  |  | |  | |    /  \     |  _  \  |  |  /  |          
                  \  \/   | |  | |   /    \    | | | |  |  | /  /          
                 / \  \   | |__| |  /  /\  \   | |_| |  |  |/  /          
                |  |  |   |  __  | /  /__\  \  |    /   |      \           
                |  |  |   | |  | | |   __   |  |    \   |  |\   \          
                \     /   | |  | | |  |  |  |  | |\  \  |  | \   \       
                 \___/    |_|  |_| |__|  |__|  |_| \__\ |__|  \__/        
                                                                              
                      - O R C A' S   B I G   F R I E N D -                    
                                      &                                       
                       - I N T E G R A L  F E E D E R -                       
                                                                              
 v1 FN, 2020, v2 2021, v3 2022-2024                                           
------------------------------------------------------------------------------


----------------------
SHARK INTEGRAL PACKAGE
----------------------

Number of atoms                             ...     24
Number of basis functions                   ...    264
Number of shells                            ...    120
Maximum angular momentum                    ...      2
Integral batch strategy                     ... SHARK/LIBINT Hybrid
RI-J (if used) integral strategy            ... SPLIT-RIJ (Revised 2003 algorithm where possible)
Printlevel                                  ...      1
Contraction scheme used                     ... SEGMENTED contraction
Prescreening option                         ... SCHWARTZ
   Thresh                                   ... 1.000e-10
   Tcut                                     ... 1.000e-11
   Tpresel                                  ... 1.000e-11 
Coulomb Range Separation                    ... NOT USED
Exchange Range Separation                   ... NOT USED
Multipole approximations                    ... NOT USED
Finite Nucleus Model                        ... NOT USED
CABS basis                                  ... NOT available
Auxiliary Coulomb fitting basis             ... AVAILABLE
   # of basis functions in Aux-J            ...    872
   # of shells in Aux-J                     ...    280
   Maximum angular momentum in Aux-J        ...      4
Auxiliary J/K fitting basis                 ... NOT available
Auxiliary Correlation fitting basis         ... NOT available
Auxiliary 'external' fitting basis          ... NOT available

Checking pre-screening integrals            ... done (  0.0 sec) Dimension = 120
Check shell pair data                       ... done (  0.0 sec)
Shell pair information
Shell pair cut-off parameter TPreSel        ...   1.0e-11
Total number of shell pairs                 ...      7260
Shell pairs after pre-screening             ...      6264
Total number of primitive shell pairs       ...     27260
Primitive shell pairs kept                  ...     15605
          la=0 lb=0:   1782 shell pairs
          la=1 lb=0:   2249 shell pairs
          la=1 lb=1:    752 shell pairs
          la=2 lb=0:    829 shell pairs
          la=2 lb=1:    547 shell pairs
          la=2 lb=2:    105 shell pairs

Calculating one electron integrals          ... done (  0.0 sec)
Calculating RI/J V-Matrix + Cholesky decomp.... done (  0.3 sec)
Calculating Nuclear repulsion               ... done (  0.0 sec) ENN=   1116.844337689365 Eh

Diagonalization of the overlap matrix:
Smallest eigenvalue                        ... 3.936e-04
Time for diagonalization                   ...    0.022 sec
Threshold for overlap eigenvalues          ... 1.000e-07
Number of eigenvalues below threshold      ... 0
Time for construction of square roots      ...    0.020 sec
Total time needed                          ...    0.058 sec

-------------------
DFT GRID GENERATION
-------------------

General Integration Accuracy     IntAcc      ... 4.388
Radial Grid Type                 RadialGrid  ... OptM3 with GC (2021)
Angular Grid (max. ang.)         AngularGrid ... 4 (Lebedev-302)
Angular grid pruning method      GridPruning ... 4 (adaptive)
Weight generation scheme         WeightScheme... mBecke (2022)
Basis function cutoff            BFCut       ... 1.0000e-10
Integration weight cutoff        WCut        ... 1.0000e-14
Partially contracted basis set               ... off
Rotationally invariant grid construction     ... off
Angular grids for H and He will be reduced by one unit

Total number of grid points                  ...   121513
Total number of batches                      ...     1913
Average number of points per batch           ...       63
Average number of grid points per atom       ...     5063

--------------------
COSX GRID GENERATION
--------------------

GRIDX 1
-------
General Integration Accuracy     IntAcc      ... 3.816
Radial Grid Type                 RadialGrid  ... OptM3 with GC (2021)
Angular Grid (max. ang.)         AngularGrid ... 1 (Lebedev-50)
Angular grid pruning method      GridPruning ... 4 (adaptive)
Weight generation scheme         WeightScheme... mBecke (2022)
Basis function cutoff            BFCut       ... 1.0000e-10
Integration weight cutoff        WCut        ... 1.0000e-14
Partially contracted basis set               ... on
Rotationally invariant grid construction     ... off
Angular grids for H and He will be reduced by one unit

Total number of grid points                  ...    15380
Total number of batches                      ...      133
Average number of points per batch           ...      115
Average number of grid points per atom       ...      641
UseSFitting                                  ... on

GRIDX 2
-------
General Integration Accuracy     IntAcc      ... 4.020
Radial Grid Type                 RadialGrid  ... OptM3 with GC (2021)
Angular Grid (max. ang.)         AngularGrid ... 2 (Lebedev-110)
Angular grid pruning method      GridPruning ... 4 (adaptive)
Weight generation scheme         WeightScheme... mBecke (2022)
Basis function cutoff            BFCut       ... 1.0000e-10
Integration weight cutoff        WCut        ... 1.0000e-14
Partially contracted basis set               ... on
Rotationally invariant grid construction     ... off
Angular grids for H and He will be reduced by one unit

Total number of grid points                  ...    34374
Total number of batches                      ...      283
Average number of points per batch           ...      121
Average number of grid points per atom       ...     1432
UseSFitting                                  ... on

GRIDX 3
-------
General Integration Accuracy     IntAcc      ... 4.338
Radial Grid Type                 RadialGrid  ... OptM3 with GC (2021)
Angular Grid (max. ang.)         AngularGrid ... 3 (Lebedev-194)
Angular grid pruning method      GridPruning ... 4 (adaptive)
Weight generation scheme         WeightScheme... mBecke (2022)
Basis function cutoff            BFCut       ... 1.0000e-10
Integration weight cutoff        WCut        ... 1.0000e-14
Partially contracted basis set               ... on
Rotationally invariant grid construction     ... off
Angular grids for H and He will be reduced by one unit

Total number of grid points                  ...    75498
Total number of batches                      ...      602
Average number of points per batch           ...      125
Average number of grid points per atom       ...     3146
UseSFitting                                  ... on
Initializing property integral containers    ... done (  0.0 sec)

SHARK setup successfully completed in   5.4 seconds

Maximum memory used throughout the entire STARTUP-calculation: 33.9 MB


           ************************************************************
           *        Program running with 8 parallel MPI-processes     *
           *              working on a common directory               *
           ************************************************************
-------------------------------------------------------------------------------
                                 ORCA GUESS
                   Start orbitals & Density for SCF / CASSCF
-------------------------------------------------------------------------------

------------
SCF SETTINGS
------------
Hamiltonian:
 Density Functional     Method          .... DFT(GTOs)
 Exchange Functional    Exchange        .... B88
   X-Alpha parameter    XAlpha          ....  0.666667
   Becke's b parameter  XBeta           ....  0.004200
 Correlation Functional Correlation     .... LYP
 LDA part of GGA corr.  LDAOpt          .... VWN-5
 Gradients option       PostSCFGGA      .... off
 Hybrid DFT is turned on
   Fraction HF Exchange ScalHFX         ....  0.200000
   Scaling of DF-GGA-X  ScalDFX         ....  0.720000
   Scaling of DF-GGA-C  ScalDFC         ....  0.810000
   Scaling of DF-LDA-C  ScalLDAC        ....  1.000000
   Perturbative correction              ....  0.000000
   NL short-range parameter             ....  4.800000
 RI-approximation to the Coulomb term is turned on
   Number of AuxJ basis functions       .... 872
   RIJ-COSX (HFX calculated with COS-X)).... on


General Settings:
 Integral files         IntName         .... sp_product
 Hartree-Fock type      HFTyp           .... RHF
 Total Charge           Charge          ....   -2
 Multiplicity           Mult            ....    1
 Number of Electrons    NEL             ....  118
 Basis Dimension        Dim             ....  264
 Nuclear Repulsion      ENuc            ....   1116.8443376894 Eh

Convergence Acceleration:
 AO-DIIS                CNVDIIS         .... on
   Start iteration      DIISMaxIt       ....    12
   Startup error        DIISStart       ....  0.200000
   # of expansion vecs  DIISMaxEq       ....     5
   Bias factor          DIISBfac        ....   1.050
   Max. coefficient     DIISMaxC        ....  10.000
 MO-DIIS                CNVKDIIS        .... off
 Trust-Rad. Augm. Hess. CNVTRAH         .... auto
   Auto Start mean grad. ratio tolernc. ....  1.125000
   Auto Start start iteration           ....    50
   Auto Start num. interpolation iter.  ....    10
   Max. Number of Micro iterations      ....    24
   Max. Number of Macro iterations      .... Maxiter - #DIIS iter
   Number of Davidson start vectors     ....     2
   Converg. threshold    (grad. norm)   ....   5.000e-05
   Grad. Scal. Fac. for Micro threshold ....   0.100
   Minimum threshold for Micro iter.    ....   1.000e-02
   NR start threshold (gradient norm)   ....   1.000e-04
   Initial trust radius                 ....   0.400
   Minimum AH scaling param. (alpha)    ....   1.000
   Maximum AH scaling param. (alpha)    .... 1000.000
   Quad. conv. algorithm                .... NR
   White noise on init. David. guess    .... on
   Maximum white noise                  ....   0.010
   Pseudo random numbers                .... off
   Inactive MOs                         .... canonical
   Orbital update algorithm             .... Taylor
   Preconditioner                       .... Diag
   Full preconditioner red. dimension   ....   250
 SOSCF                  CNVSOSCF        .... on
   Start iteration      SOSCFMaxIt      ....   150
   Startup grad/error   SOSCFStart      ....  0.003300
   Hessian update       SOSCFHessUp     .... L-BFGS
 Level Shifting         CNVShift        .... on
   Level shift para.    LevelShift      ....    0.2500
   Turn off err/grad.   ShiftErr        ....    0.0010
 Zerner damping         CNVZerner       .... off
 Static damping         CNVDamp         .... on
   Fraction old density DampFac         ....    0.7000
   Max. Damping (<1)    DampMax         ....    0.9800
   Min. Damping (>=0)   DampMin         ....    0.0000
   Turn off err/grad.   DampErr         ....    0.1000

SCF Procedure:
 Maximum # iterations   MaxIter         ....   300
 SCF integral mode      SCFMode         .... Direct
   Integral package                     .... SHARK and LIBINT hybrid scheme
 Reset frequency        DirectResetFreq ....    20
 Integral Threshold     Thresh          ....  1.000e-10 Eh
 Primitive CutOff       TCut            ....  1.000e-11 Eh

Convergence Tolerance:
 Convergence Check Mode ConvCheckMode   .... Total+1el-Energy
 Convergence forced     ConvForced      .... 0
 Energy Change          TolE            ....  1.000e-06 Eh
 1-El. energy change                    ....  1.000e-03 Eh
 Orbital Gradient       TolG            ....  5.000e-05
 Orbital Rotation angle TolX            ....  5.000e-05
 DIIS Error             TolErr          ....  1.000e-06

------------------------------
INITIAL GUESS: MODEL POTENTIAL
------------------------------
Loading Hartree-Fock densities                     ... done
Calculating cut-offs                               ... done
Initializing the effective Hamiltonian             ... done
Setting up the integral package (SHARK)            ... done
Starting the Coulomb interaction                   ... done (   0.3 sec)
Making the grid                                    ... done (   0.7 sec)
Mapping shells                                     ... done
Starting the XC term evaluation                    ... done (   0.2 sec)
  promolecular density results
     # of electrons  =    115.998697969
     EX              =   -102.846167672
     EC              =     -4.059360868
     EX+EC           =   -106.905528540
Transforming the Hamiltonian                       ... done (   0.0 sec)
Diagonalizing the Hamiltonian                      ... done (   0.0 sec)
Back transforming the eigenvectors                 ... done (   0.0 sec)
Now organizing SCF variables                       ... done
                      ------------------
                      INITIAL GUESS DONE (   1.3 sec)
                      ------------------
             **** ENERGY FILE WAS UPDATED (sp_product.en.tmp) ****
Finished Guess after   2.2 sec
Maximum memory used throughout the entire GUESS-calculation: 19.9 MB


           ************************************************************
           *        Program running with 8 parallel MPI-processes     *
           *              working on a common directory               *
           ************************************************************

-------------------------------------------------------------------------------------------
                                      ORCA LEAN-SCF
                              memory conserving SCF solver
-------------------------------------------------------------------------------------------

--------------------
CPCM SOLVATION MODEL
--------------------
CPCM parameters:
  Epsilon                                         ...       4.0000
  Refrac                                          ...       1.3300
  Rsolv                                           ...       1.3000
  Surface type                                    ... GAUSSIAN VDW
  Discretization scheme                           ... Constant charge density
    Threshold for H atoms                         ...       5.0000 (charges/Ang^2)
    Threshold for non-H atoms                     ...       5.0000 (charges/Ang^2)
  Epsilon function type                           ...         CPCM
Solvent:                                          ... CUSTOM
Radii:
  Scheme                                          ... Element-dependent radii
  Radius for C  used is    3.8550 Bohr (=   2.0400 Ang.)
  Radius for H  used is    2.4944 Bohr (=   1.3200 Ang.)
  Radius for O  used is    3.4469 Bohr (=   1.8240 Ang.)
Calculating surface                               ...        done! (  0.0s)
Cavity surface points                             ...         2066
Cavity Volume                                     ...    1735.7773
Cavity Surface-area                               ...     851.7065
Calculating surface distance matrix               ...        done! (  0.1s)
Performing Cholesky decomposition & store         ...        done! (  0.5s)
Overall time for CPCM initialization              ...                 0.6s

----------------------------------------D-I-I-S--------------------------------------------
Iteration    Energy (Eh)           Delta-E    RMSDP     MaxDP     DIISErr   Damp  Time(sec)
-------------------------------------------------------------------------------------------
               ***  Starting incremental Fock matrix formation  ***
    1    -835.7250479564963825     0.00e+00  4.96e-03  3.71e-01  2.97e-01  0.700   7.1
    2    -836.0196114214802492    -2.95e-01  3.47e-03  2.87e-01  1.29e-01  0.700   4.2
                               ***Turning on AO-DIIS***
    3    -836.1239506017366239    -1.04e-01  1.30e-03  8.30e-02  3.63e-02  0.700   3.8
    4    -836.1905853690582262    -6.66e-02  1.80e-03  4.18e-02  1.62e-02  0.000   3.4
    5    -836.3398960139468272    -1.49e-01  5.20e-04  4.47e-02  5.85e-03  0.000   3.8
                              *** Initializing SOSCF ***
---------------------------------------S-O-S-C-F--------------------------------------
Iteration    Energy (Eh)           Delta-E    RMSDP     MaxDP     MaxGrad    Time(sec)
--------------------------------------------------------------------------------------
    6    -836.3406541542540253    -7.58e-04  1.50e-04  1.12e-02  1.50e-03     5.0
               *** Restarting incremental Fock matrix formation ***
    7    -836.3406782990518877    -2.41e-05  9.93e-05  3.13e-03  4.95e-04     7.0
    8    -836.3406682287925378     1.01e-05  4.14e-05  1.97e-03  1.08e-03     4.6
    9    -836.3406887584544620    -2.05e-05  2.09e-05  7.83e-04  6.84e-05     4.3
   10    -836.3406883955110516     3.63e-07  9.66e-06  3.30e-04  9.95e-05     4.1
                 **** Energy Check signals convergence ****

               *****************************************************
               *                     SUCCESS                       *
               *           SCF CONVERGED AFTER  10 CYCLES          *
               *****************************************************

Recomputing exchange energy using gridx3       ... done (    8.409 sec)
Old exchange energy                            :    -20.898852113 Eh
New exchange energy                            :    -20.898842838 Eh
Exchange energy change after final integration :      0.000009276 Eh
Total energy after final integration           :   -836.340679120 Eh
             **** ENERGY FILE WAS UPDATED (sp_product.en.tmp) ****

----------------
TOTAL SCF ENERGY
----------------

Total Energy       :       -836.34067911967850 Eh          -22757.98687 eV

Components:
Nuclear Repulsion  :       1116.84433768936469 Eh           30390.87947 eV
Electronic Energy  :      -1952.96503951425188 Eh          -53142.88046 eV
One Electron Energy:      -3399.06154136019086 Eh          -92493.16680 eV
Two Electron Energy:       1446.09650184593897 Eh           39350.28635 eV
CPCM Dielectric    :         -0.21998657062386 Eh              -5.98614 eV

Virial components:
Potential Energy   :      -1665.87734034943833 Eh          -45330.82701 eV
Kinetic Energy     :        829.53666122975983 Eh           22572.84013 eV
Virial Ratio       :          2.00820219070226

DFT components:
N(Alpha)           :       58.999984338600 electrons
N(Beta)            :       58.999984338600 electrons
N(Total)           :      117.999968677200 electrons
E(X)               :      -83.160955008341 Eh       
E(C)               :       -4.848654740596 Eh       
E(XC)              :      -88.009609748938 Eh       

CPCM Solvation Model Properties:
Surface-charge          :          1.98340984618696
Corrected charge        :          2.00000000000000
Outlying charge corr.   :          0.00001320649845 Eh               0.00036 eV
Free-energy (cav+disp)  :  This term is not implemented in the current solvation scheme

---------------
SCF CONVERGENCE
---------------

  Last Energy change         ...   -3.6294e-07  Tolerance :   1.0000e-06
  Last MAX-Density change    ...    3.2979e-04  Tolerance :   1.0000e-05
  Last RMS-Density change    ...    9.6605e-06  Tolerance :   1.0000e-06
  Last DIIS Error            ...    1.4981e-03  Tolerance :   1.0000e-06
  Last Orbital Gradient      ...    9.9501e-05  Tolerance :   5.0000e-05
  Last Orbital Rotation      ...    1.6410e-04  Tolerance :   5.0000e-05


----------------
ORBITAL ENERGIES
----------------

  NO   OCC          E(Eh)            E(eV) 
   0   2.0000     -19.063486      -518.7438 
   1   2.0000     -19.042425      -518.1707 
   2   2.0000     -18.981851      -516.5224 
   3   2.0000     -18.978312      -516.4261 
   4   2.0000     -18.977128      -516.3939 
   5   2.0000     -18.974871      -516.3325 
   6   2.0000     -10.175489      -276.8891 
   7   2.0000     -10.173410      -276.8326 
   8   2.0000     -10.172394      -276.8049 
   9   2.0000     -10.162435      -276.5339 
  10   2.0000     -10.121514      -275.4204 
  11   2.0000     -10.111554      -275.1494 
  12   2.0000     -10.110560      -275.1223 
  13   2.0000     -10.109631      -275.0971 
  14   2.0000     -10.109284      -275.0876 
  15   2.0000     -10.107180      -275.0303 
  16   2.0000      -0.952669       -25.9234 
  17   2.0000      -0.941010       -25.6062 
  18   2.0000      -0.917004       -24.9530 
  19   2.0000      -0.911540       -24.8043 
  20   2.0000      -0.827876       -22.5276 
  21   2.0000      -0.824742       -22.4424 
  22   2.0000      -0.761342       -20.7172 
  23   2.0000      -0.683320       -18.5941 
  24   2.0000      -0.665236       -18.1020 
  25   2.0000      -0.615387       -16.7455 
  26   2.0000      -0.548912       -14.9366 
  27   2.0000      -0.512440       -13.9442 
  28   2.0000      -0.508385       -13.8339 
  29   2.0000      -0.453805       -12.3487 
  30   2.0000      -0.437233       -11.8977 
  31   2.0000      -0.416171       -11.3246 
  32   2.0000      -0.403401       -10.9771 
  33   2.0000      -0.383897       -10.4464 
  34   2.0000      -0.377314       -10.2672 
  35   2.0000      -0.360667        -9.8143 
  36   2.0000      -0.353154        -9.6098 
  37   2.0000      -0.347466        -9.4550 
  38   2.0000      -0.344981        -9.3874 
  39   2.0000      -0.331028        -9.0077 
  40   2.0000      -0.321337        -8.7440 
  41   2.0000      -0.313830        -8.5397 
  42   2.0000      -0.306160        -8.3310 
  43   2.0000      -0.304229        -8.2785 
  44   2.0000      -0.295878        -8.0513 
  45   2.0000      -0.285682        -7.7738 
  46   2.0000      -0.274163        -7.4604 
  47   2.0000      -0.261369        -7.1122 
  48   2.0000      -0.240624        -6.5477 
  49   2.0000      -0.213552        -5.8110 
  50   2.0000      -0.209701        -5.7063 
  51   2.0000      -0.184517        -5.0210 
  52   2.0000      -0.181891        -4.9495 
  53   2.0000      -0.158023        -4.3000 
  54   2.0000      -0.155617        -4.2346 
  55   2.0000      -0.148217        -4.0332 
  56   2.0000      -0.137627        -3.7450 
  57   2.0000      -0.135326        -3.6824 
  58   2.0000      -0.126139        -3.4324 
  59   0.0000       0.039055         1.0627 
  60   0.0000       0.081137         2.2078 
  61   0.0000       0.085615         2.3297 
  62   0.0000       0.130315         3.5460 
  63   0.0000       0.143866         3.9148 
  64   0.0000       0.155485         4.2310 
  65   0.0000       0.170432         4.6377 
  66   0.0000       0.177996         4.8435 
  67   0.0000       0.195309         5.3146 
  68   0.0000       0.211049         5.7429 
  69   0.0000       0.219151         5.9634 
*Only the first 10 virtual orbitals were printed.

                    ********************************
                    * MULLIKEN POPULATION ANALYSIS *
                    ********************************

-----------------------
MULLIKEN ATOMIC CHARGES
-----------------------
   0 C :    0.230750
   1 H :   -0.026023
   2 H :   -0.023698
   3 C :   -0.031748
   4 C :    0.069602
   5 O :   -0.423485
   6 O :   -0.415820
   7 O :   -0.265632
   8 C :   -0.107183
   9 H :   -0.036608
  10 C :    0.028343
  11 H :   -0.036553
  12 C :   -0.202616
  13 C :    0.037790
  14 H :   -0.029222
  15 C :   -0.111288
  16 H :   -0.028047
  17 C :    0.321601
  18 H :    0.001679
  19 O :   -0.361189
  20 H :    0.173330
  21 C :    0.080225
  22 O :   -0.439879
  23 O :   -0.404328
Sum of atomic charges:   -2.0000000

--------------------------------
MULLIKEN REDUCED ORBITAL CHARGES
--------------------------------
  0 C s       :     2.913897  s :     2.913897
      pz      :     0.935546  p :     2.823743
      px      :     0.975988
      py      :     0.912209
      dz2     :     0.003640  d :     0.031610
      dxz     :     0.008842
      dyz     :     0.007241
      dx2y2   :     0.004582
      dxy     :     0.007306

  1 H s       :     1.002963  s :     1.002963
      pz      :     0.007690  p :     0.023060
      px      :     0.008274
      py      :     0.007096

  2 H s       :     1.001153  s :     1.001153
      pz      :     0.005283  p :     0.022545
      px      :     0.006147
      py      :     0.011115

  3 C s       :     3.236334  s :     3.236334
      pz      :     0.835733  p :     2.706035
      px      :     0.928299
      py      :     0.942003
      dz2     :     0.015560  d :     0.089380
      dxz     :     0.017215
      dyz     :     0.016219
      dx2y2   :     0.023539
      dxy     :     0.016847

  4 C s       :     3.053326  s :     3.053326
      pz      :     0.869805  p :     2.738103
      px      :     0.917220
      py      :     0.951078
      dz2     :     0.009561  d :     0.138969
      dxz     :     0.028117
      dyz     :     0.010330
      dx2y2   :     0.043245
      dxy     :     0.047716

  5 O s       :     3.725512  s :     3.725512
      pz      :     1.512304  p :     4.683946
      px      :     1.637008
      py      :     1.534633
      dz2     :     0.001831  d :     0.014027
      dxz     :     0.001652
      dyz     :     0.002892
      dx2y2   :     0.002860
      dxy     :     0.004792

  6 O s       :     3.737146  s :     3.737146
      pz      :     1.549596  p :     4.664507
      px      :     1.343491
      py      :     1.771420
      dz2     :     0.001712  d :     0.014166
      dxz     :     0.004150
      dyz     :     0.000114
      dx2y2   :     0.005277
      dxy     :     0.002913

  7 O s       :     3.739345  s :     3.739345
      pz      :     1.366954  p :     4.509202
      px      :     1.596640
      py      :     1.545607
      dz2     :     0.003987  d :     0.017085
      dxz     :     0.002912
      dyz     :     0.004393
      dx2y2   :     0.002384
      dxy     :     0.003410

  8 C s       :     3.197160  s :     3.197160
      pz      :     0.993378  p :     2.876674
      px      :     0.951670
      py      :     0.931626
      dz2     :     0.003027  d :     0.033348
      dxz     :     0.007986
      dyz     :     0.003990
      dx2y2   :     0.006753
      dxy     :     0.011593

  9 H s       :     1.013586  s :     1.013586
      pz      :     0.006989  p :     0.023022
      px      :     0.006949
      py      :     0.009085

 10 C s       :     3.182272  s :     3.182272
      pz      :     0.924925  p :     2.754276
      px      :     0.924503
      py      :     0.904849
      dz2     :     0.002864  d :     0.035109
      dxz     :     0.008815
      dyz     :     0.004001
      dx2y2   :     0.008509
      dxy     :     0.010919

 11 H s       :     1.013558  s :     1.013558
      pz      :     0.007261  p :     0.022994
      px      :     0.006798
      py      :     0.008935

 12 C s       :     3.125295  s :     3.125295
      pz      :     1.000136  p :     3.029911
      px      :     1.063241
      py      :     0.966534
      dz2     :     0.008170  d :     0.047410
      dxz     :     0.009649
      dyz     :     0.011537
      dx2y2   :     0.007458
      dxy     :     0.010596

 13 C s       :     3.187384  s :     3.187384
      pz      :     0.912147  p :     2.740442
      px      :     0.883778
      py      :     0.944517
      dz2     :     0.004933  d :     0.034383
      dxz     :     0.011165
      dyz     :     0.003778
      dx2y2   :     0.005870
      dxy     :     0.008637

 14 H s       :     1.006200  s :     1.006200
      pz      :     0.009033  p :     0.023022
      px      :     0.008077
      py      :     0.005913

 15 C s       :     3.219323  s :     3.219323
      pz      :     0.929374  p :     2.858962
      px      :     0.937376
      py      :     0.992212
      dz2     :     0.003738  d :     0.033003
      dxz     :     0.011541
      dyz     :     0.003784
      dx2y2   :     0.005938
      dxy     :     0.008002

 16 H s       :     1.005378  s :     1.005378
      pz      :     0.009859  p :     0.022669
      px      :     0.005878
      py      :     0.006932

 17 C s       :     2.835056  s :     2.835056
      pz      :     0.966885  p :     2.772146
      px      :     0.859836
      py      :     0.945425
      dz2     :     0.008179  d :     0.071197
      dxz     :     0.017601
      dyz     :     0.014911
      dx2y2   :     0.014103
      dxy     :     0.016404

 18 H s       :     0.975994  s :     0.975994
      pz      :     0.009076  p :     0.022327
      px      :     0.003261
      py      :     0.009990

 19 O s       :     3.725640  s :     3.725640
      pz      :     1.523791  p :     4.623415
      px      :     1.323645
      py      :     1.775979
      dz2     :     0.002017  d :     0.012134
      dxz     :     0.005322
      dyz     :     0.002234
      dx2y2   :     0.001242
      dxy     :     0.001319

 20 H s       :     0.759996  s :     0.759996
      pz      :     0.023387  p :     0.066674
      px      :     0.022987
      py      :     0.020300

 21 C s       :     3.039241  s :     3.039241
      pz      :     0.912292  p :     2.741934
      px      :     0.950659
      py      :     0.878983
      dz2     :     0.041951  d :     0.138601
      dxz     :     0.040317
      dyz     :     0.034160
      dx2y2   :     0.010621
      dxy     :     0.011552

 22 O s       :     3.732847  s :     3.732847
      pz      :     1.556661  p :     4.693078
      px      :     1.602277
      py      :     1.534140
      dz2     :     0.002459  d :     0.013954
      dxz     :     0.004010
      dyz     :     0.003262
      dx2y2   :     0.002075
      dxy     :     0.002148

 23 O s       :     3.717478  s :     3.717478
      pz      :     1.367956  p :     4.672606
      px      :     1.701335
      py      :     1.603315
      dz2     :     0.006499  d :     0.014244
      dxz     :     0.003648
      dyz     :     0.003646
      dx2y2   :     0.000196
      dxy     :     0.000255



                     *******************************
                     * LOEWDIN POPULATION ANALYSIS *
                     *******************************

----------------------
LOEWDIN ATOMIC CHARGES
----------------------
   0 C :   -0.034804
   1 H :    0.019107
   2 H :    0.016932
   3 C :    0.039376
   4 C :   -0.080570
   5 O :   -0.383438
   6 O :   -0.375513
   7 O :   -0.189074
   8 C :   -0.066591
   9 H :    0.012482
  10 C :   -0.011827
  11 H :    0.012876
  12 C :   -0.081359
  13 C :   -0.012480
  14 H :    0.016320
  15 C :   -0.063265
  16 H :    0.016332
  17 C :    0.049557
  18 H :    0.012603
  19 O :   -0.169614
  20 H :    0.079479
  21 C :   -0.027740
  22 O :   -0.398676
  23 O :   -0.380115

-------------------------------
LOEWDIN REDUCED ORBITAL CHARGES
-------------------------------
  0 C s       :     2.855787  s :     2.855787
      pz      :     1.024581  p :     3.095081
      px      :     1.040315
      py      :     1.030185
      dz2     :     0.008303  d :     0.083936
      dxz     :     0.023974
      dyz     :     0.020270
      dx2y2   :     0.012085
      dxy     :     0.019304

  1 H s       :     0.910234  s :     0.910234
      pz      :     0.024376  p :     0.070658
      px      :     0.025304
      py      :     0.020978

  2 H s       :     0.914435  s :     0.914435
      pz      :     0.017164  p :     0.068633
      px      :     0.018708
      py      :     0.032762

  3 C s       :     2.928520  s :     2.928520
      pz      :     0.866039  p :     2.825378
      px      :     0.956774
      py      :     1.002565
      dz2     :     0.030107  d :     0.206726
      dxz     :     0.042439
      dyz     :     0.038974
      dx2y2   :     0.056567
      dxy     :     0.038639

  4 C s       :     2.873285  s :     2.873285
      pz      :     0.851979  p :     2.882078
      px      :     1.020402
      py      :     1.009697
      dz2     :     0.022455  d :     0.325207
      dxz     :     0.058593
      dyz     :     0.022261
      dx2y2   :     0.105688
      dxy     :     0.116209

  5 O s       :     3.571906  s :     3.571906
      pz      :     1.514449  p :     4.786438
      px      :     1.679885
      py      :     1.592105
      dz2     :     0.003385  d :     0.025095
      dxz     :     0.002599
      dyz     :     0.004399
      dx2y2   :     0.005054
      dxy     :     0.009658

  6 O s       :     3.567286  s :     3.567286
      pz      :     1.543826  p :     4.782729
      px      :     1.464426
      py      :     1.774477
      dz2     :     0.003675  d :     0.025497
      dxz     :     0.005639
      dyz     :     0.000168
      dx2y2   :     0.011237
      dxy     :     0.004778

  7 O s       :     3.545892  s :     3.545892
      pz      :     1.405016  p :     4.613380
      px      :     1.616934
      py      :     1.591430
      dz2     :     0.004839  d :     0.029802
      dxz     :     0.005777
      dyz     :     0.008854
      dx2y2   :     0.004583
      dxy     :     0.005749

  8 C s       :     2.879850  s :     2.879850
      pz      :     1.004932  p :     3.098562
      px      :     1.081633
      py      :     1.011997
      dz2     :     0.007072  d :     0.088178
      dxz     :     0.019849
      dyz     :     0.009132
      dx2y2   :     0.020597
      dxy     :     0.031528

  9 H s       :     0.918883  s :     0.918883
      pz      :     0.021623  p :     0.068635
      px      :     0.019339
      py      :     0.027673

 10 C s       :     2.873771  s :     2.873771
      pz      :     0.968648  p :     3.046195
      px      :     1.072398
      py      :     1.005149
      dz2     :     0.007366  d :     0.091860
      dxz     :     0.021284
      dyz     :     0.009216
      dx2y2   :     0.024257
      dxy     :     0.029736

 11 H s       :     0.916364  s :     0.916364
      pz      :     0.023024  p :     0.070759
      px      :     0.019981
      py      :     0.027755

 12 C s       :     2.869164  s :     2.869164
      pz      :     1.019923  p :     3.099068
      px      :     1.060162
      py      :     1.018983
      dz2     :     0.017219  d :     0.113127
      dxz     :     0.023049
      dyz     :     0.029854
      dx2y2   :     0.015625
      dxy     :     0.027380

 13 C s       :     2.876892  s :     2.876892
      pz      :     1.002275  p :     3.045856
      px      :     1.074251
      py      :     0.969329
      dz2     :     0.013371  d :     0.089732
      dxz     :     0.030422
      dyz     :     0.008811
      dx2y2   :     0.016782
      dxy     :     0.020345

 14 H s       :     0.913667  s :     0.913667
      pz      :     0.027659  p :     0.070013
      px      :     0.023315
      py      :     0.019040

 15 C s       :     2.879587  s :     2.879587
      pz      :     1.012811  p :     3.097347
      px      :     1.076174
      py      :     1.008363
      dz2     :     0.010319  d :     0.086331
      dxz     :     0.031015
      dyz     :     0.008659
      dx2y2   :     0.016618
      dxy     :     0.019720

 16 H s       :     0.915157  s :     0.915157
      pz      :     0.030009  p :     0.068511
      px      :     0.016700
      py      :     0.021802

 17 C s       :     2.834400  s :     2.834400
      pz      :     1.027660  p :     2.955077
      px      :     0.895833
      py      :     1.031584
      dz2     :     0.014907  d :     0.160966
      dxz     :     0.041277
      dyz     :     0.038409
      dx2y2   :     0.028600
      dxy     :     0.037774

 18 H s       :     0.914183  s :     0.914183
      pz      :     0.028473  p :     0.073214
      px      :     0.012417
      py      :     0.032323

 19 O s       :     3.449842  s :     3.449842
      pz      :     1.584319  p :     4.696579
      px      :     1.355823
      py      :     1.756437
      dz2     :     0.002726  d :     0.023193
      dxz     :     0.010953
      dyz     :     0.003472
      dx2y2   :     0.002823
      dxy     :     0.003220

 20 H s       :     0.741787  s :     0.741787
      pz      :     0.068075  p :     0.178733
      px      :     0.056262
      py      :     0.054397

 21 C s       :     2.858022  s :     2.858022
      pz      :     1.017756  p :     2.847634
      px      :     0.954239
      py      :     0.875638
      dz2     :     0.105107  d :     0.322084
      dxz     :     0.093184
      dyz     :     0.075214
      dx2y2   :     0.022743
      dxy     :     0.025836

 22 O s       :     3.568536  s :     3.568536
      pz      :     1.625688  p :     4.805133
      px      :     1.627261
      py      :     1.552184
      dz2     :     0.004268  d :     0.025008
      dxz     :     0.007840
      dyz     :     0.006068
      dx2y2   :     0.002672
      dxy     :     0.004161

 23 O s       :     3.565521  s :     3.565521
      pz      :     1.477760  p :     4.789050
      px      :     1.708678
      py      :     1.602612
      dz2     :     0.013644  d :     0.025544
      dxz     :     0.006287
      dyz     :     0.005034
      dx2y2   :     0.000281
      dxy     :     0.000298



                      *****************************
                      * MAYER POPULATION ANALYSIS *
                      *****************************

  NA   - Mulliken gross atomic population
  ZA   - Total nuclear charge
  QA   - Mulliken gross atomic charge
  VA   - Mayer's total valence
  BVA  - Mayer's bonded valence
  FA   - Mayer's free valence

  ATOM       NA         ZA         QA         VA         BVA        FA
  0 C      5.7693     6.0000     0.2307     3.7718     3.7718     0.0000
  1 H      1.0260     1.0000    -0.0260     1.0476     1.0476    -0.0000
  2 H      1.0237     1.0000    -0.0237     1.0246     1.0246     0.0000
  3 C      6.0317     6.0000    -0.0317     3.9675     3.9675    -0.0000
  4 C      5.9304     6.0000     0.0696     4.4713     4.4713    -0.0000
  5 O      8.4235     8.0000    -0.4235     2.0605     2.0605    -0.0000
  6 O      8.4158     8.0000    -0.4158     2.0584     2.0584    -0.0000
  7 O      8.2656     8.0000    -0.2656     2.1863     2.1863     0.0000
  8 C      6.1072     6.0000    -0.1072     3.9740     3.9740     0.0000
  9 H      1.0366     1.0000    -0.0366     0.9904     0.9904     0.0000
 10 C      5.9717     6.0000     0.0283     3.9222     3.9222    -0.0000
 11 H      1.0366     1.0000    -0.0366     1.0257     1.0257    -0.0000
 12 C      6.2026     6.0000    -0.2026     3.6657     3.6657     0.0000
 13 C      5.9622     6.0000     0.0378     3.8770     3.8770    -0.0000
 14 H      1.0292     1.0000    -0.0292     1.0221     1.0221     0.0000
 15 C      6.1113     6.0000    -0.1113     3.9155     3.9155    -0.0000
 16 H      1.0280     1.0000    -0.0280     0.9926     0.9926    -0.0000
 17 C      5.6784     6.0000     0.3216     3.7807     3.7807     0.0000
 18 H      0.9983     1.0000     0.0017     1.0751     1.0751     0.0000
 19 O      8.3612     8.0000    -0.3612     2.0349     2.0349     0.0000
 20 H      0.8267     1.0000     0.1733     1.0130     1.0130     0.0000
 21 C      5.9198     6.0000     0.0802     4.5518     4.5518     0.0000
 22 O      8.4399     8.0000    -0.4399     2.0359     2.0359    -0.0000
 23 O      8.4043     8.0000    -0.4043     2.0959     2.0959    -0.0000

  Mayer bond orders larger than 0.100000
B(  0-C ,  1-H ) :   0.8785 B(  0-C ,  2-H ) :   0.9181 B(  0-C ,  3-C ) :   0.9829 
B(  0-C , 12-C ) :   0.9904 B(  3-C ,  4-C ) :   0.8144 B(  3-C ,  7-O ) :   2.0467 
B(  4-C ,  5-O ) :   1.8431 B(  4-C ,  6-O ) :   1.8035 B(  5-O ,  6-O ) :   0.1297 
B(  6-O , 18-H ) :   0.1047 B(  8-C ,  9-H ) :   0.9658 B(  8-C , 10-C ) :   1.8733 
B(  8-C , 17-C ) :   0.9820 B( 10-C , 11-H ) :   0.9650 B( 10-C , 12-C ) :   0.9806 
B( 12-C , 13-C ) :   0.9535 B( 12-C , 21-C ) :   0.7878 B( 13-C , 14-H ) :   0.9651 
B( 13-C , 15-C ) :   1.8682 B( 15-C , 16-H ) :   0.9716 B( 15-C , 17-C ) :   0.9818 
B( 17-C , 18-H ) :   0.8482 B( 17-C , 19-O ) :   0.9857 B( 19-O , 20-H ) :   0.9746 
B( 21-C , 22-O ) :   1.8159 B( 21-C , 23-O ) :   1.9156 B( 22-O , 23-O ) :   0.1108 


-------
TIMINGS
-------

Total SCF time: 0 days 0 hours 0 min 57 sec 

Total time                  ....      57.485 sec
Sum of individual times     ....      57.010 sec  ( 99.2%)

SCF preparation             ....       1.453 sec  (  2.5%)
Fock matrix formation       ....      51.284 sec  ( 89.2%)
  Startup                   ....       0.229 sec  (  0.4% of F)
  Split-RI-J                ....       4.830 sec  (  9.4% of F)
  Chain of spheres X        ....      32.445 sec  ( 63.3% of F)
  XC integration            ....       7.296 sec  ( 14.2% of F)
    XC Preparation          ....       0.000 sec  (  0.0% of XC)
    Basis function eval.    ....       1.774 sec  ( 24.3% of XC)
    Density eval.           ....       1.065 sec  ( 14.6% of XC)
    XC-Functional eval.     ....       0.296 sec  (  4.1% of XC)
    XC-Potential eval.      ....       1.120 sec  ( 15.4% of XC)
  CPCM terms                ....       5.100 sec  (  9.9% of F)
Diagonalization             ....       0.000 sec  (  0.0%)
Density matrix formation    ....       0.635 sec  (  1.1%)
Total Energy calculation    ....       0.582 sec  (  1.0%)
Population analysis         ....       0.164 sec  (  0.3%)
Orbital Transformation      ....       0.189 sec  (  0.3%)
Orbital Orthonormalization  ....       0.000 sec  (  0.0%)
DIIS solution               ....       2.007 sec  (  3.5%)
SOSCF solution              ....       0.696 sec  (  1.2%)
Finished LeanSCF after  57.8 sec

Maximum memory used throughout the entire LEANSCF-calculation: 31.1 MB


-------------------------------------------------------------------------------
                          DFT DISPERSION CORRECTION                            
                                                                               
                              DFTD3 V3.1  Rev 1                                
                          USING Becke-Johnson damping                          
-------------------------------------------------------------------------------
The B3LYP functional is recognized
Active option DFTDOPT                   ...         4   

molecular C6(AA) [au] = 6861.108343 


            DFT-D V3
 parameters
 s6 scaling factor         :     1.0000 
 a1 scaling factor         :     0.3981 
 s8 scaling factor         :     1.9889 
 a2 scaling factor         :     4.4211 
 ad hoc parameters k1-k3   :    16.0000     1.3333    -4.0000 

 Edisp/kcal,au: -34.113852350938  -0.054363878351 
 E6   /kcal   : -15.962716921 
 E8   /kcal   : -18.151135430 
 % E8         :  53.207521810 

-------------------------   ----------------
Dispersion correction           -0.054363878
-------------------------   ----------------


-------------------------   --------------------
FINAL SINGLE POINT ENERGY      -836.395042998029
-------------------------   --------------------



           ************************************************************
           *        Program running with 8 parallel MPI-processes     *
           *              working on a common directory               *
           ************************************************************

------------------------------------------------------------------------------
                              ORCA PROPERTY CALCULATIONS
------------------------------------------------------------------------------

GBWName                                 ... sp_product.gbw
Number of atoms                         ...     24
Number of basis functions               ...    264
Max core memory                         ...   3000 MB

Electric properties:
Dipole moment                           ... YES
Quadrupole moment                       ...  NO
Static polarizability (Dipole/Dipole)   ...  NO
Static polarizability (Dipole/Quad.)    ...  NO
Static polarizability (Quad./Quad.)     ...  NO
Static polarizability (Velocity)        ...  NO

Atomic electric properties:
Dipole moment                           ...  NO
Quadrupole moment                       ...  NO
Static polarizability                   ...  NO

Choice of electric origin               ... Center of mass
Position of electric origin             ...   111.075475    63.455014   105.101785

General magnetic properties:
Magnetizability                         ...  NO

EPR properties:
g-Tensor (aka g-matrix)                 ...  NO
Zero-Field splitting spin-orbit         ...  NO
Zero-field splitting spin-spin          ...  NO
Hyperfine couplings                     ...  NO (   0 nuclei)
Quadrupole couplings                    ...  NO (   0 nuclei)
Contact density                         ...  NO (   0 nuclei)

NMR properties:
Chemical shifts                         ...  NO (   0 nuclei)
Spin-rotation constants                 ...  NO (   0 nuclei)
Spin-spin couplings                     ...  NO (   0 nuclei,    0 pairs)

Choice of magnetic origin               ... GIAO
Position of magnetic origin             ...     0.000000     0.000000     0.000000

Properties with geometric perturbations:
SCF Hessian                             ...  NO
IR spectrum                             ...  NO
VCD spectrum                            ...  NO
X-ray spectroscopy properties:
SCF XES/XAS/RIXS spectra                ...  NO


-------------
DIPOLE MOMENT
-------------

Method             : SCF
Type of density    : Electron Density
Multiplicity       :   1
Irrep              :   0
Energy             :  -836.3406791196784980 Eh
Relativity type    : 
Basis              : AO
                                X                 Y                 Z
Electronic contribution:      1.414766570       1.589462713       1.926586764
Nuclear contribution   :     -3.854884289      -3.112088407      -1.977343763
                        -----------------------------------------
Total Dipole Moment    :     -2.440117719      -1.522625694      -0.050756999
                        -----------------------------------------
Magnitude (a.u.)       :      2.876654265
Magnitude (Debye)      :      7.311874056



--------------------
Rotational spectrum 
--------------------
 
Rotational constants in cm-1:             0.023307             0.016079             0.012403 
Rotational constants in MHz :           698.726821           482.023320           371.820478 

Dipole components along the rotational axes: 
x,y,z [a.u.] :     0.794667    -2.548035     1.072923 
x,y,z [Debye]:     2.019884    -6.476589     2.727153 

 

Dipole moment calculation done in   0.1 sec 

Maximum memory used throughout the entire PROP-calculation: 13.9 MB

--------------------------------
SUGGESTED CITATIONS FOR THIS RUN
--------------------------------

Below you find a list of papers that are relevant to this ORCA run
We neither can nor want to force you to cite these papers, but we appreciate if you do
You receive ORCA, which is the product of decades of hard work by many enthusiastic individuals, for free
The only thing we kindly ask in return is that you cite our papers,
We deeply appreciate it, if you show your appreciation for ORCA by not just citing the generic ORCA reference.

Please note that relegating all ORCA citations to the supporting information does *not* help us.
SI sections are not indexed - citations you put there will not count into any citation statistics
But we need these citations in order to attract the funding resources that allow us to do what we are doing

Therefore, if you are a happy ORCA user, please consider citing a few of the papers listed below in the main body of your paper

In addition to the list printed below, the program has created the file sp_product.bibtex that contains the list in bibtex format
You can import this file easily into all common literature databanks and citation aid programs


List of essential papers. We consider these as the minimum necessary citations

  1. Neese,F.
     Software update: the ORCA program system, version 5.0
     WIRES Comput. Molec. Sci., 2022 12(1)e1606
     doi.org/10.1002/wcms.1606

List of papers to cite with high priority. The work reported in these papers was absolutely
necessary for this run to complete.
Our perspective: the developers of density functionals and basis sets usually get cited in chemistry papers
Good! But without the algorithms to do something with them, the functionals or basis sets would not do anything.
Hence, in our opinion, the algorithm design and method developments papers are equally worthy of getting cited

  1. Neese,F.
     An improvement of the resolution of the identity approximation for the formation of the Coulomb matrix
     J. Comp. Chem., 2003 24(14)1740-1747
     doi.org/10.1002/jcc.10318
  2. Neese,F.; Wennmohs,F.; Hansen,A.; Becker,U.
     Efficient, approximate and parallel Hartree-Fock and hybrid DFT calculations. A 'chain-of-spheres' algorithm for the Hartree-Fock exchange
     Chem. Phys., 2009 356(1-3)98-109
     doi.org/10.1016/j.chemphys.2008.10.036
  3. Garcia-Rates,M.; Neese,F.
     Effect of the Solute Cavity on the Solvation Energy and its Derivatives within the Framework of the Gaussian Charge Scheme
     J. Comput. Chem., 2020 41 922-939
     doi.org/10.1002/jcc.26139
  4. Helmich-Paris,B.; de Souza,B.; Neese,F.; Izsák,R.
     An improved chain of spheres for exchange algorithm
     J. Chem. Phys., 2021 155 104109
     doi.org/doi: 10.1063/5.0058766.
  5. Neese,F.
     The SHARK Integral Generation and Digestion System
     J. Comp. Chem., 2022  1-16
     doi.org/10.1002/jcc.26942
  6. Grimme,S.; Antony,J.; Ehrlich,S.; Krieg,H.
     A consistent and accurate ab initio parametrization of density functional dispersion correction (DFT-D) for the 94 elements H-Pu
     J. Chem. Phys., 2010 132 154104
     doi.org/10.1063/1.3382344
  7. Grimme,S.; Ehrlich,S.; Goerigk,L.
     Effect of the damping function in dispersion corrected density functional theory
     J. Comput. Chem., 2011 32(7)1456-1465
     doi.org/10.1002/jcc.21759

List of suggested additional citations. These are papers that are important in the 'surrounding' of 
of this run, or papers that preceded the highly important papers. If you like your results we are grateful for a citation.

  1. Izsak,R.; Neese,F.
     An overlap fitted chain of spheres exchange method
     J. Chem. Phys., 2011 135 144105
     doi.org/10.1063/1.3646921
  2. Izsak,R.; Hansen,A.; Neese,F.
     The resolution of identity and chain of spheres approximations for the LPNO-CCSD singles Fock term
     Molec. Phys., 2012 110 2413-2417
     doi.org/10.1080/00268976.2012.687466
  3. Neese,F.
     The ORCA program system
     WIRES Comput. Molec. Sci., 2012 2(1)73-78
     doi.org/10.1002/wcms.81
  4. Izsak,R.; Neese,F.; Klopper,W.
     Robust fitting techniques in the chain of spheres approximation to the Fock exchange: The role of the complementary space
     J. Chem. Phys., 2013 139 
     doi.org/10.1063/1.4819264
  5. Neese,F.
     Software update: the ORCA program system, version 4.0
     WIRES Comput. Molec. Sci., 2018 8(1)1-6
     doi.org/10.1002/wcms.1327
  6. Neese,F.; Wennmohs,F.; Becker,U.; Riplinger,C.
     The ORCA quantum chemistry program package
     J. Chem. Phys., 2020 152 Art. No. L224108
     doi.org/10.1063/5.0004608

List of optional additional citations

  1. Neese,F.
     Approximate second-order SCF convergence for spin unrestricted wavefunctions
     Chem. Phys. Lett., 2000 325(1-3)93-98
     doi.org/10.1016/s0009-2614(00)00662-x

Timings for individual modules:

Sum of individual times          ...       70.474 sec (=   1.175 min)
Startup calculation              ...        6.749 sec (=   0.112 min)   9.6 %
SCF iterations                   ...       61.953 sec (=   1.033 min)  87.9 %
Property calculations            ...        1.772 sec (=   0.030 min)   2.5 %
                             ****ORCA TERMINATED NORMALLY****
TOTAL RUN TIME: 0 days 0 hours 1 minutes 19 seconds 825 msec
