
                                 *****************
                                 * O   R   C   A *
                                 *****************

                                            #,                                       
                                            ###                                      
                                            ####                                     
                                            #####                                    
                                            ######                                   
                                           ########,                                 
                                     ,,################,,,,,                         
                               ,,#################################,,                 
                          ,,##########################################,,             
                       ,#########################################, ''#####,          
                    ,#############################################,,   '####,        
                  ,##################################################,,,,####,       
                ,###########''''           ''''###############################       
              ,#####''   ,,,,##########,,,,          '''####'''          '####       
            ,##' ,,,,###########################,,,                        '##       
           ' ,,###''''                  '''############,,,                           
         ,,##''                                '''############,,,,        ,,,,,,###''
      ,#''                                            '''#######################'''  
     '                                                          ''''####''''         
             ,#######,   #######,   ,#######,      ##                                
            ,#'     '#,  ##    ##  ,#'     '#,    #''#        ,####,   ,####,        
            ##       ##  ##   ,#'  ##            #'  '#       #'       #'  '#        
            ##       ##  #######   ##           ,######,      #####,   #    #        
            '#,     ,#'  ##    ##  '#,     ,#' ,#      #,     #,   #   #,  ,#        
             '#######'   ##     ##  '#######'  #'      '#     '####' # '####'        



                #########################################################
                #                        -***-                          #
                #          Department of theory and spectroscopy        #
                #                                                       #
                #                      Frank Neese                      #
                #                                                       #
                #     Directorship, Architecture, Infrastructure        #
                #                    SHARK, DRIVERS                     #
                #        Core code/Algorithms in most modules           #
                #                                                       #
                #        Max Planck Institute fuer Kohlenforschung      #
                #                Kaiser Wilhelm Platz 1                 #
                #                 D-45470 Muelheim/Ruhr                 #
                #                      Germany                          #
                #                                                       #
                #                  All rights reserved                  #
                #                        -***-                          #
                #########################################################


                         Program Version 6.0.1  -  RELEASE   -


 With contributions from (in alphabetic order):
[Max-Planck-Institut fuer Kohlenforschung]                               
  Daniel Aravena         : Magnetic Suceptibility                        
  Michael Atanasov       : Ab Initio Ligand Field Theory (pilot matlab implementation)
  Alexander A. Auer      : GIAO ZORA, VPT2 properties, NMR spectrum      
  Ute Becker             : All parallelization in ORCA, NUMFREQ, NUMCALC 
  Giovanni Bistoni       : ED, misc. LED, open-shell LED, HFLD           
  Martin Brehm           : Molecular dynamics                            
  Dmytro Bykov           : pre 5.0 version of the SCF Hessian            
  Marcos Casanova-Páez   : Triplet and SCS-CIS(D). UHF-(DLPNO)-IP/EA/STEOM-CCSD. UHF-CVS-IP/STEOM-CCSD   
  Vijay G. Chilkuri      : MRCI spin determinant printing, contributions to CSF-ICE 
  Pauline Colinet        : FMM embedding                                 
  Dipayan Datta          : RHF DLPNO-CCSD density                        
  Achintya Kumar Dutta   : EOM-CC, STEOM-CC                              
  Nicolas Foglia         : Exact transition moments, OPA infrastructure, MCD improvements    
  Dmitry Ganyushin       : Spin-Orbit,Spin-Spin,Magnetic field MRCI      
  Miquel Garcia-Rates    : C-PCM and meta-GGA Hessian, CCSD/C-PCM, Gaussian charge scheme 
  Tiago L. C. Gouveia    : GS-ROHF, GS-ROCIS                             
  Yang Guo               : DLPNO-NEVPT2, F12-NEVPT2, CIM, IAO-localization        
  Andreas Hansen         : Spin unrestricted coupled pair/coupled cluster methods 
  Ingolf Harden          : AUTO-CI MPn and infrastructure                
  Benjamin Helmich-Paris : MC-RPA, TRAH-(SCF,CASSCF), AVAS, COSX integrals, SCF dyn. polar. 
  Lee Huntington         : MR-EOM, pCC                                   
  Robert Izsak           : Overlap fitted RIJCOSX, COSX-SCS-MP3, EOM     
  Riya Kayal             : Wick's Theorem for AUTO-CI, AUTO-CI UHF-CCSDT 
  Emily Kempfer          : AUTO-CI, RHF CISDT and CCSDT                  
  Christian Kollmar      : KDIIS, OOCD, Brueckner-CCSD(T), CCSD density, CASPT2, CASPT2-K, improved NEVPT2 
  Axel Koslowski         : Symmetry handling                             
  Simone Kossmann        : meta-GGA functionals, TD-DFT gradient, OOMP2, (MP2 Hessian; deprecated post 5.0) 
  Lucas Lang             : DCDCAS                                        
  Marvin Lechner         : AUTO-CI (C++ implementation), FIC-MRCC        
  Spencer Leger          : CASSCF response                               
  Dagmar Lenk            : GEPOL surface, SMD, ORCA-2-JSON               
  Dimitrios Liakos       : Extrapolation schemes; Compound Job, initial MDCI parallelization 
  Dimitrios Manganas     : Further ROCIS development; embedding schemes. LFT, Crystal Embedding 
  Dimitrios Pantazis     : SARC Basis sets                               
  Anastasios Papadopoulos: AUTO-CI, single reference methods and gradients 
  Taras Petrenko         : pre 6.0 DFT Hessian and TD-DFT gradient, (ASA, deprecated), ECA, 1-Electron XAS/XES, NRVS 
  Peter Pinski           : DLPNO-MP2, DLPNO-MP2 Gradient                 
  Christoph Reimann      : Effective Core Potentials                     
  Marius Retegan         : Local ZFS, SOC                                
  Christoph Riplinger    : Optimizer, TS searches, QM/MM, DLPNO-CCSD(T), (RO)-DLPNO pert. Triples 
  Michael Roemelt        : Original ROCIS implementation                 
  Masaaki Saitow         : Open-shell DLPNO-CCSD energy and density      
  Barbara Sandhoefer     : DKH picture change effects                    
  Kantharuban Sivalingam : CASSCF convergence/infrastructure, NEVPT2 and variants, FIC-MRCI 
  Bernardo de Souza      : ESD, SOC TD-DFT                               
  Georgi L. Stoychev     : AutoAux, RI-MP2 NMR, DLPNO-MP2 response, X2C  
  Van Anh Tran           : RI-MP2 g-tensors                              
  Willem Van den Heuvel  : Paramagnetic NMR                              
  Zikuan Wang            : NOTCH, Electric field optimization            
  Frank Wennmohs         : Technical directorship and infrastructure     
  Hang Xu                : AUTO-CI-Response properties                   
                                                                         
[FACCTs GmbH]                                                            
  Markus Bursch, Miquel Garcia-Rates, Christoph Riplinger, Bernardo de Souza, Georgi L. Stoychev 
                                                                 
  APM, Basis sets (HGBS, AHGBS, def-TZVP (Ac-Lr), def2-XVPD (La-Lu)), CI-OPT, improved COSX, DLPNO-Multilevel,           
  DOCKER, DRACO, updates on ESD, GOAT, IRC, LR-CPCM, MBIS, meta-GGA TD-DFT gradient, ML-optimized integration grids, 
  MM, NACMEs, nearIR, NEB, NEB-TS, NL-DFT gradient (VV10), 2- and 3-layer-ONIOM, interface openCOSMO-RS, QMMM,   
  Crystal-QMMM, SF, symmetry and pop. for TD-DFT, r2SCAN hybrids, SOLVATOR                                   
                                                                         
[Other institutions]                                                     
  V. Asgeirsson          : NEB                                           
  Christoph Bannwarth    : sTDA-DFT, sTD-DFT, PBEh-3c, B97-3c, D3        
  Sebastian Ehlert       : rSCAN, r2SCAN, r2SCAN-3c, D4, dhf basis sets  
  Marvin Friede          : D4 for Fr, Ra, Ac-Lr                          
  Lars Goerigk           : TD-DFT with DH, B97 family of functionals     
  Stefan Grimme          : VdW corrections, initial TS optimization, DFT functionals, gCP, sTDA/sTD-DF 
  Waldemar Hujo          : DFT-NL                                        
  H. Jonsson             : NEB                                           
  Holger Kruse           : gCP                                           
  Marcel Mueller         : wB97X-3c, vDZP basis set                      
  Hagen Neugebauer       : wr2SCAN                                       
  Tobias Risthaus        : range-separated hybrid DFT                    
  Lukas Wittmann         : regularized MP2, r2SCAN double-hybrids, wr2SCAN        
                                                                         
We gratefully acknowledge several colleagues who have allowed us to      
interface, adapt or use parts of their codes:                            
  Ed Valeev, F. Pavosevic, A. Kumar             : LibInt (2-el integral package), F12 methods 
  Garnet Chan, S. Sharma, J. Yang, R. Olivares  : DMRG                   
  Ulf Ekstrom                                   : XCFun DFT Library      
  Mihaly Kallay                                 : mrcc  (arbitrary order and MRCC methods)
  Frank Weinhold                                : gennbo (NPA and NBO analysis)           
  Simon Mueller                                 : openCOSMO-RS                            
  Christopher J. Cramer and Donald G. Truhlar   : smd solvation model                     
  S Lehtola, MJT Oliveira, MAL Marques          : LibXC Library                           
  Liviu Ungur et al                             : ANISO software                          


 Your calculation uses the libint2 library for the computation of 2-el integrals
 For citations please refer to: http://libint.valeyev.net

 Your ORCA version has been built with support for libXC version: 6.2.2
 For citations please refer to: https://libxc.gitlab.io

 This ORCA versions uses:
   CBLAS   interface :  Fast vector & matrix operations
   LAPACKE interface :  Fast linear algebra routines
   SCALAPACK package :  Parallel linear algebra routines
   Shared memory     :  Shared parallel matrices
   BLAS/LAPACK       :  OpenBLAS 0.3.27  USE64BITINT DYNAMIC_ARCH NO_AFFINITY Bulldozer SINGLE_THREADED
        Core in use  :  Bulldozer
   Copyright (c) 2011-2014, The OpenBLAS Project


NOTE: MaxCore=3000 MB was set to SCF,MP2,MDCI,CIPSI,MRCI and CIS
      => If you want to overwrite this, your respective input block should be placed after the MaxCore statement
Your calculation utilizes the atom-pairwise dispersion correction
with the Becke-Johnson damping scheme (D3BJ)


================================================================================

----- Orbital basis set information -----
Your calculation utilizes the basis: def2-SVP
   F. Weigend and R. Ahlrichs, Phys. Chem. Chem. Phys. 7, 3297 (2005).

----- AuxJ basis set information -----
Your calculation utilizes the auxiliary basis: def2/J
   F. Weigend, Phys. Chem. Chem. Phys. 8, 1057 (2006).

================================================================================
                                        WARNINGS
                       Please study these warnings very carefully!
================================================================================


================================================================================
                                       INPUT FILE
================================================================================
NAME = sp_reactant.inp
|  1> ! B3LYP D3BJ def2-SVP def2/J RIJCOSX CPCM KeepDens
|  2> %maxcore 3000
|  3> %pal nprocs 8 end
|  4> %cpcm epsilon 4.0 end
|  5> %scf MaxIter 300 end
|  6> * xyz -2 1
|  7> C     60.11193800    34.38396900    57.21013200
|  8> H     60.60719900    33.42993900    57.38460900
|  9> H     60.72469300    35.27181800    57.05919300
| 10> C     58.78057700    34.50353200    57.15195800
| 11> C     58.09218200    35.83426100    56.89335400
| 12> O     58.81246700    36.81821800    56.57878900
| 13> O     56.83954900    35.84891700    57.00961700
| 14> O     57.93461500    33.42640300    57.34599800
| 15> C     57.67693600    32.53773200    56.20080600
| 16> H     57.01901700    31.76376900    56.62407200
| 17> C     58.98648700    31.96184000    55.79317200
| 18> H     59.46393000    31.24298300    56.46049600
| 19> C     59.68310500    32.48267100    54.76815100
| 20> C     59.06432100    33.48370900    53.89317900
| 21> H     59.70236100    33.90454400    53.11096900
| 22> C     57.78125300    33.86565900    54.03153300
| 23> H     57.33218100    34.60235400    53.35662900
| 24> C     56.88979900    33.27109300    55.08618200
| 25> H     56.34719000    34.09064800    55.58588000
| 26> O     55.96286300    32.39770700    54.43466800
| 27> H     55.31084500    32.10952700    55.09277000
| 28> C     61.12320000    32.06212600    54.53420800
| 29> O     61.78496200    31.70232800    55.54338100
| 30> O     61.54107100    32.10651300    53.35273800
| 31> *
| 32> 
| 33>                          ****END OF INPUT****
================================================================================

                       ****************************
                       * Single Point Calculation *
                       ****************************

---------------------------------
CARTESIAN COORDINATES (ANGSTROEM)
---------------------------------
  C     60.111938   34.383969   57.210132
  H     60.607199   33.429939   57.384609
  H     60.724693   35.271818   57.059193
  C     58.780577   34.503532   57.151958
  C     58.092182   35.834261   56.893354
  O     58.812467   36.818218   56.578789
  O     56.839549   35.848917   57.009617
  O     57.934615   33.426403   57.345998
  C     57.676936   32.537732   56.200806
  H     57.019017   31.763769   56.624072
  C     58.986487   31.961840   55.793172
  H     59.463930   31.242983   56.460496
  C     59.683105   32.482671   54.768151
  C     59.064321   33.483709   53.893179
  H     59.702361   33.904544   53.110969
  C     57.781253   33.865659   54.031533
  H     57.332181   34.602354   53.356629
  C     56.889799   33.271093   55.086182
  H     56.347190   34.090648   55.585880
  O     55.962863   32.397707   54.434668
  H     55.310845   32.109527   55.092770
  C     61.123200   32.062126   54.534208
  O     61.784962   31.702328   55.543381
  O     61.541071   32.106513   53.352738

----------------------------
CARTESIAN COORDINATES (A.U.)
----------------------------
  NO LB      ZA    FRAG     MASS         X           Y           Z
   0 C     6.0000    0    12.011  113.595100   64.976285  108.111482
   1 H     1.0000    0     1.008  114.531008   63.173429  108.441195
   2 H     1.0000    0     1.008  114.753039   66.654076  107.826248
   3 C     6.0000    0    12.011  111.079193   65.202226  108.001549
   4 C     6.0000    0    12.011  109.778315   67.716940  107.512858
   5 O     8.0000    0    15.999  111.139456   69.576349  106.918416
   6 O     8.0000    0    15.999  107.411181   67.744635  107.732563
   7 O     8.0000    0    15.999  109.480556   63.166747  108.368231
   8 C     6.0000    0    12.011  108.993613   61.487402  106.204132
   9 H     1.0000    0     1.008  107.750327   60.024824  107.003989
  10 C     6.0000    0    12.011  111.468306   60.399124  105.433815
  11 H     1.0000    0     1.008  112.370543   59.040681  106.694875
  12 C     6.0000    0    12.011  112.784723   61.383352  103.496806
  13 C     6.0000    0    12.011  111.615391   63.275040  101.843349
  14 H     1.0000    0     1.008  112.821112   64.070303  100.365186
  15 C     6.0000    0    12.011  109.190744   63.996821  102.104800
  16 H     1.0000    0     1.008  108.342121   65.388973  100.829416
  17 C     6.0000    0    12.011  107.506140   62.873254  104.097798
  18 H     1.0000    0     1.008  106.480758   64.421988  105.042090
  19 O     8.0000    0    15.999  105.754485   61.222794  102.866615
  20 H     1.0000    0     1.008  104.522349   60.678212  104.110247
  21 C     6.0000    0    12.011  115.506108   60.588637  103.054718
  22 O     8.0000    0    15.999  116.756657   59.908718  104.961779
  23 O     8.0000    0    15.999  116.295770   60.672517  100.822063

--------------------------------
INTERNAL COORDINATES (ANGSTROEM)
--------------------------------
 C      0   0   0     0.000000000000     0.00000000     0.00000000
 H      1   0   0     1.088989863383     0.00000000     0.00000000
 H      1   2   0     1.089278255795   118.71371059     0.00000000
 C      1   2   3     1.337984169400   122.53333633   178.86021439
 C      4   1   2     1.520395795930   122.42129410   180.67352117
 O      5   4   1     1.259338317649   117.86430047     7.98397869
 O      5   4   1     1.258102267780   116.44144955   187.69788882
 O      4   1   2     1.383296826312   122.19798630     1.79734009
 C      8   4   1     1.472276920333   117.90009257   277.32119882
 H      9   8   4     1.100468192492   103.29579790   178.09067811
 C      9   8   4     1.487528451903   107.02309521    60.79280321
 H     11   9   8     1.090884286106   118.21513549    69.64465314
 C     11   9   8     1.344324967754   121.00718757   261.74112609
 C     13  11   9     1.466474246922   120.04938653   349.80769557
 H     14  13  11     1.093640536431   116.31112146   176.92324750
 C     14  13  11     1.345842161786   122.32101579   356.58249340
 H     16  14  13     1.095390612259   121.22306820   181.08159495
 C     16  14  13     1.503490430855   121.67821129   359.07517439
 H     18  16  14     1.102630044988   108.40569783   133.99480188
 O     18  16  14     1.430553719819   107.82773122   252.99945495
 H     20  18  16     0.970192469115   107.93143701   187.73461727
 C     13  11   9     1.518374470708   120.10913882   168.27919774
 O     22  13  11     1.259290947072   117.00532896   331.47810903
 O     22  13  11     1.253976769845   116.83473561   151.49408336

---------------------------
INTERNAL COORDINATES (A.U.)
---------------------------
 C      0   0   0     0.000000000000     0.00000000     0.00000000
 H      1   0   0     2.057892604409     0.00000000     0.00000000
 H      1   2   0     2.058437587087   118.71371059     0.00000000
 C      1   2   3     2.528423651689   122.53333633   178.86021439
 C      4   1   2     2.873131669473   122.42129410   180.67352117
 O      5   4   1     2.379804530310   117.86430047     7.98397869
 O      5   4   1     2.377468734570   116.44144955   187.69788882
 O      4   1   2     2.614052163652   122.19798630     1.79734009
 C      8   4   1     2.782200172723   117.90009257   277.32119882
 H      9   8   4     2.079583502901   103.29579790   178.09067811
 C      9   8   4     2.811021390513   107.02309521    60.79280321
 H     11   9   8     2.061472544539   118.21513549    69.64465314
 C     11   9   8     2.540406024047   121.00718757   261.74112609
 C     13  11   9     2.771234709130   120.04938653   349.80769557
 H     14  13  11     2.066681102809   116.31112146   176.92324750
 C     14  13  11     2.543273105260   122.32101579   356.58249340
 H     16  14  13     2.069988266838   121.22306820   181.08159495
 C     16  14  13     2.841185159287   121.67821129   359.07517439
 H     18  16  14     2.083668812060   108.40569783   133.99480188
 O     18  16  14     2.703354750320   107.82773122   252.99945495
 H     20  18  16     1.833398063821   107.93143701   187.73461727
 C     13  11   9     2.869311918377   120.10913882   168.27919774
 O     22  13  11     2.379715012892   117.00532896   331.47810903
 O     22  13  11     2.369672673306   116.83473561   151.49408336

---------------------
BASIS SET INFORMATION
---------------------
There are 3 groups of distinct atoms

 Group   1 Type C   : 7s4p1d contracted to 3s2p1d pattern {511/31/1}
 Group   2 Type H   : 4s1p contracted to 2s1p pattern {31/1}
 Group   3 Type O   : 7s4p1d contracted to 3s2p1d pattern {511/31/1}

Atom   0C    basis set group =>   1
Atom   1H    basis set group =>   2
Atom   2H    basis set group =>   2
Atom   3C    basis set group =>   1
Atom   4C    basis set group =>   1
Atom   5O    basis set group =>   3
Atom   6O    basis set group =>   3
Atom   7O    basis set group =>   3
Atom   8C    basis set group =>   1
Atom   9H    basis set group =>   2
Atom  10C    basis set group =>   1
Atom  11H    basis set group =>   2
Atom  12C    basis set group =>   1
Atom  13C    basis set group =>   1
Atom  14H    basis set group =>   2
Atom  15C    basis set group =>   1
Atom  16H    basis set group =>   2
Atom  17C    basis set group =>   1
Atom  18H    basis set group =>   2
Atom  19O    basis set group =>   3
Atom  20H    basis set group =>   2
Atom  21C    basis set group =>   1
Atom  22O    basis set group =>   3
Atom  23O    basis set group =>   3
---------------------------------
AUXILIARY/J BASIS SET INFORMATION
---------------------------------
There are 3 groups of distinct atoms

 Group   1 Type C   : 12s5p4d2f1g contracted to 6s4p3d1f1g pattern {711111/2111/211/2/1}
 Group   2 Type H   : 5s2p1d contracted to 3s1p1d pattern {311/2/1}
 Group   3 Type O   : 12s5p4d2f1g contracted to 6s4p3d1f1g pattern {711111/2111/211/2/1}

Atom   0C    basis set group =>   1
Atom   1H    basis set group =>   2
Atom   2H    basis set group =>   2
Atom   3C    basis set group =>   1
Atom   4C    basis set group =>   1
Atom   5O    basis set group =>   3
Atom   6O    basis set group =>   3
Atom   7O    basis set group =>   3
Atom   8C    basis set group =>   1
Atom   9H    basis set group =>   2
Atom  10C    basis set group =>   1
Atom  11H    basis set group =>   2
Atom  12C    basis set group =>   1
Atom  13C    basis set group =>   1
Atom  14H    basis set group =>   2
Atom  15C    basis set group =>   1
Atom  16H    basis set group =>   2
Atom  17C    basis set group =>   1
Atom  18H    basis set group =>   2
Atom  19O    basis set group =>   3
Atom  20H    basis set group =>   2
Atom  21C    basis set group =>   1
Atom  22O    basis set group =>   3
Atom  23O    basis set group =>   3


           ************************************************************
           *        Program running with 8 parallel MPI-processes     *
           *              working on a common directory               *
           ************************************************************
------------------------------------------------------------------------------
                             ORCA STARTUP CALCULATIONS
                           -- RI-GTO INTEGRALS CHOSEN --
------------------------------------------------------------------------------
------------------------------------------------------------------------------
                   ___                                                        
                  /   \      - P O W E R E D   B Y -                         
                 /     \                                                     
                 |  |  |   _    _      __       _____    __    __             
                 |  |  |  | |  | |    /  \     |  _  \  |  |  /  |          
                  \  \/   | |  | |   /    \    | | | |  |  | /  /          
                 / \  \   | |__| |  /  /\  \   | |_| |  |  |/  /          
                |  |  |   |  __  | /  /__\  \  |    /   |      \           
                |  |  |   | |  | | |   __   |  |    \   |  |\   \          
                \     /   | |  | | |  |  |  |  | |\  \  |  | \   \       
                 \___/    |_|  |_| |__|  |__|  |_| \__\ |__|  \__/        
                                                                              
                      - O R C A' S   B I G   F R I E N D -                    
                                      &                                       
                       - I N T E G R A L  F E E D E R -                       
                                                                              
 v1 FN, 2020, v2 2021, v3 2022-2024                                           
------------------------------------------------------------------------------


----------------------
SHARK INTEGRAL PACKAGE
----------------------

Number of atoms                             ...     24
Number of basis functions                   ...    264
Number of shells                            ...    120
Maximum angular momentum                    ...      2
Integral batch strategy                     ... SHARK/LIBINT Hybrid
RI-J (if used) integral strategy            ... SPLIT-RIJ (Revised 2003 algorithm where possible)
Printlevel                                  ...      1
Contraction scheme used                     ... SEGMENTED contraction
Prescreening option                         ... SCHWARTZ
   Thresh                                   ... 1.000e-10
   Tcut                                     ... 1.000e-11
   Tpresel                                  ... 1.000e-11 
Coulomb Range Separation                    ... NOT USED
Exchange Range Separation                   ... NOT USED
Multipole approximations                    ... NOT USED
Finite Nucleus Model                        ... NOT USED
CABS basis                                  ... NOT available
Auxiliary Coulomb fitting basis             ... AVAILABLE
   # of basis functions in Aux-J            ...    872
   # of shells in Aux-J                     ...    280
   Maximum angular momentum in Aux-J        ...      4
Auxiliary J/K fitting basis                 ... NOT available
Auxiliary Correlation fitting basis         ... NOT available
Auxiliary 'external' fitting basis          ... NOT available

Checking pre-screening integrals            ... done (  0.0 sec) Dimension = 120
Check shell pair data                       ... done (  0.0 sec)
Shell pair information
Shell pair cut-off parameter TPreSel        ...   1.0e-11
Total number of shell pairs                 ...      7260
Shell pairs after pre-screening             ...      6228
Total number of primitive shell pairs       ...     27260
Primitive shell pairs kept                  ...     15436
          la=0 lb=0:   1771 shell pairs
          la=1 lb=0:   2245 shell pairs
          la=1 lb=1:    747 shell pairs
          la=2 lb=0:    821 shell pairs
          la=2 lb=1:    542 shell pairs
          la=2 lb=2:    102 shell pairs

Calculating one electron integrals          ... done (  0.0 sec)
Calculating RI/J V-Matrix + Cholesky decomp.... done (  0.3 sec)
Calculating Nuclear repulsion               ... done (  0.0 sec) ENN=   1112.401835119650 Eh

Diagonalization of the overlap matrix:
Smallest eigenvalue                        ... 4.683e-04
Time for diagonalization                   ...    0.021 sec
Threshold for overlap eigenvalues          ... 1.000e-07
Number of eigenvalues below threshold      ... 0
Time for construction of square roots      ...    0.023 sec
Total time needed                          ...    0.060 sec

-------------------
DFT GRID GENERATION
-------------------

General Integration Accuracy     IntAcc      ... 4.388
Radial Grid Type                 RadialGrid  ... OptM3 with GC (2021)
Angular Grid (max. ang.)         AngularGrid ... 4 (Lebedev-302)
Angular grid pruning method      GridPruning ... 4 (adaptive)
Weight generation scheme         WeightScheme... mBecke (2022)
Basis function cutoff            BFCut       ... 1.0000e-10
Integration weight cutoff        WCut        ... 1.0000e-14
Partially contracted basis set               ... off
Rotationally invariant grid construction     ... off
Angular grids for H and He will be reduced by one unit

Total number of grid points                  ...   121630
Total number of batches                      ...     1912
Average number of points per batch           ...       63
Average number of grid points per atom       ...     5068

--------------------
COSX GRID GENERATION
--------------------

GRIDX 1
-------
General Integration Accuracy     IntAcc      ... 3.816
Radial Grid Type                 RadialGrid  ... OptM3 with GC (2021)
Angular Grid (max. ang.)         AngularGrid ... 1 (Lebedev-50)
Angular grid pruning method      GridPruning ... 4 (adaptive)
Weight generation scheme         WeightScheme... mBecke (2022)
Basis function cutoff            BFCut       ... 1.0000e-10
Integration weight cutoff        WCut        ... 1.0000e-14
Partially contracted basis set               ... on
Rotationally invariant grid construction     ... off
Angular grids for H and He will be reduced by one unit

Total number of grid points                  ...    15403
Total number of batches                      ...      134
Average number of points per batch           ...      114
Average number of grid points per atom       ...      642
UseSFitting                                  ... on

GRIDX 2
-------
General Integration Accuracy     IntAcc      ... 4.020
Radial Grid Type                 RadialGrid  ... OptM3 with GC (2021)
Angular Grid (max. ang.)         AngularGrid ... 2 (Lebedev-110)
Angular grid pruning method      GridPruning ... 4 (adaptive)
Weight generation scheme         WeightScheme... mBecke (2022)
Basis function cutoff            BFCut       ... 1.0000e-10
Integration weight cutoff        WCut        ... 1.0000e-14
Partially contracted basis set               ... on
Rotationally invariant grid construction     ... off
Angular grids for H and He will be reduced by one unit

Total number of grid points                  ...    34411
Total number of batches                      ...      281
Average number of points per batch           ...      122
Average number of grid points per atom       ...     1434
UseSFitting                                  ... on

GRIDX 3
-------
General Integration Accuracy     IntAcc      ... 4.338
Radial Grid Type                 RadialGrid  ... OptM3 with GC (2021)
Angular Grid (max. ang.)         AngularGrid ... 3 (Lebedev-194)
Angular grid pruning method      GridPruning ... 4 (adaptive)
Weight generation scheme         WeightScheme... mBecke (2022)
Basis function cutoff            BFCut       ... 1.0000e-10
Integration weight cutoff        WCut        ... 1.0000e-14
Partially contracted basis set               ... on
Rotationally invariant grid construction     ... off
Angular grids for H and He will be reduced by one unit

Total number of grid points                  ...    75571
Total number of batches                      ...      603
Average number of points per batch           ...      125
Average number of grid points per atom       ...     3149
UseSFitting                                  ... on
Initializing property integral containers    ... done (  0.1 sec)

SHARK setup successfully completed in   6.3 seconds

Maximum memory used throughout the entire STARTUP-calculation: 33.7 MB


           ************************************************************
           *        Program running with 8 parallel MPI-processes     *
           *              working on a common directory               *
           ************************************************************
-------------------------------------------------------------------------------
                                 ORCA GUESS
                   Start orbitals & Density for SCF / CASSCF
-------------------------------------------------------------------------------

------------
SCF SETTINGS
------------
Hamiltonian:
 Density Functional     Method          .... DFT(GTOs)
 Exchange Functional    Exchange        .... B88
   X-Alpha parameter    XAlpha          ....  0.666667
   Becke's b parameter  XBeta           ....  0.004200
 Correlation Functional Correlation     .... LYP
 LDA part of GGA corr.  LDAOpt          .... VWN-5
 Gradients option       PostSCFGGA      .... off
 Hybrid DFT is turned on
   Fraction HF Exchange ScalHFX         ....  0.200000
   Scaling of DF-GGA-X  ScalDFX         ....  0.720000
   Scaling of DF-GGA-C  ScalDFC         ....  0.810000
   Scaling of DF-LDA-C  ScalLDAC        ....  1.000000
   Perturbative correction              ....  0.000000
   NL short-range parameter             ....  4.800000
 RI-approximation to the Coulomb term is turned on
   Number of AuxJ basis functions       .... 872
   RIJ-COSX (HFX calculated with COS-X)).... on


General Settings:
 Integral files         IntName         .... sp_reactant
 Hartree-Fock type      HFTyp           .... RHF
 Total Charge           Charge          ....   -2
 Multiplicity           Mult            ....    1
 Number of Electrons    NEL             ....  118
 Basis Dimension        Dim             ....  264
 Nuclear Repulsion      ENuc            ....   1112.4018351196 Eh

Convergence Acceleration:
 AO-DIIS                CNVDIIS         .... on
   Start iteration      DIISMaxIt       ....    12
   Startup error        DIISStart       ....  0.200000
   # of expansion vecs  DIISMaxEq       ....     5
   Bias factor          DIISBfac        ....   1.050
   Max. coefficient     DIISMaxC        ....  10.000
 MO-DIIS                CNVKDIIS        .... off
 Trust-Rad. Augm. Hess. CNVTRAH         .... auto
   Auto Start mean grad. ratio tolernc. ....  1.125000
   Auto Start start iteration           ....    50
   Auto Start num. interpolation iter.  ....    10
   Max. Number of Micro iterations      ....    24
   Max. Number of Macro iterations      .... Maxiter - #DIIS iter
   Number of Davidson start vectors     ....     2
   Converg. threshold    (grad. norm)   ....   5.000e-05
   Grad. Scal. Fac. for Micro threshold ....   0.100
   Minimum threshold for Micro iter.    ....   1.000e-02
   NR start threshold (gradient norm)   ....   1.000e-04
   Initial trust radius                 ....   0.400
   Minimum AH scaling param. (alpha)    ....   1.000
   Maximum AH scaling param. (alpha)    .... 1000.000
   Quad. conv. algorithm                .... NR
   White noise on init. David. guess    .... on
   Maximum white noise                  ....   0.010
   Pseudo random numbers                .... off
   Inactive MOs                         .... canonical
   Orbital update algorithm             .... Taylor
   Preconditioner                       .... Diag
   Full preconditioner red. dimension   ....   250
 SOSCF                  CNVSOSCF        .... on
   Start iteration      SOSCFMaxIt      ....   150
   Startup grad/error   SOSCFStart      ....  0.003300
   Hessian update       SOSCFHessUp     .... L-BFGS
 Level Shifting         CNVShift        .... on
   Level shift para.    LevelShift      ....    0.2500
   Turn off err/grad.   ShiftErr        ....    0.0010
 Zerner damping         CNVZerner       .... off
 Static damping         CNVDamp         .... on
   Fraction old density DampFac         ....    0.7000
   Max. Damping (<1)    DampMax         ....    0.9800
   Min. Damping (>=0)   DampMin         ....    0.0000
   Turn off err/grad.   DampErr         ....    0.1000

SCF Procedure:
 Maximum # iterations   MaxIter         ....   300
 SCF integral mode      SCFMode         .... Direct
   Integral package                     .... SHARK and LIBINT hybrid scheme
 Reset frequency        DirectResetFreq ....    20
 Integral Threshold     Thresh          ....  1.000e-10 Eh
 Primitive CutOff       TCut            ....  1.000e-11 Eh

Convergence Tolerance:
 Convergence Check Mode ConvCheckMode   .... Total+1el-Energy
 Convergence forced     ConvForced      .... 0
 Energy Change          TolE            ....  1.000e-06 Eh
 1-El. energy change                    ....  1.000e-03 Eh
 Orbital Gradient       TolG            ....  5.000e-05
 Orbital Rotation angle TolX            ....  5.000e-05
 DIIS Error             TolErr          ....  1.000e-06

------------------------------
INITIAL GUESS: MODEL POTENTIAL
------------------------------
Loading Hartree-Fock densities                     ... done
Calculating cut-offs                               ... done
Initializing the effective Hamiltonian             ... done
Setting up the integral package (SHARK)            ... done
Starting the Coulomb interaction                   ... done (   0.3 sec)
Making the grid                                    ... done (   0.7 sec)
Mapping shells                                     ... done
Starting the XC term evaluation                    ... done (   0.2 sec)
  promolecular density results
     # of electrons  =    115.995183560
     EX              =   -102.842458192
     EC              =     -4.058902883
     EX+EC           =   -106.901361075
Transforming the Hamiltonian                       ... done (   0.0 sec)
Diagonalizing the Hamiltonian                      ... done (   0.0 sec)
Back transforming the eigenvectors                 ... done (   0.0 sec)
Now organizing SCF variables                       ... done
                      ------------------
                      INITIAL GUESS DONE (   1.4 sec)
                      ------------------
             **** ENERGY FILE WAS UPDATED (sp_reactant.en.tmp) ****
Finished Guess after   2.3 sec
Maximum memory used throughout the entire GUESS-calculation: 19.8 MB


           ************************************************************
           *        Program running with 8 parallel MPI-processes     *
           *              working on a common directory               *
           ************************************************************

-------------------------------------------------------------------------------------------
                                      ORCA LEAN-SCF
                              memory conserving SCF solver
-------------------------------------------------------------------------------------------

--------------------
CPCM SOLVATION MODEL
--------------------
CPCM parameters:
  Epsilon                                         ...       4.0000
  Refrac                                          ...       1.3300
  Rsolv                                           ...       1.3000
  Surface type                                    ... GAUSSIAN VDW
  Discretization scheme                           ... Constant charge density
    Threshold for H atoms                         ...       5.0000 (charges/Ang^2)
    Threshold for non-H atoms                     ...       5.0000 (charges/Ang^2)
  Epsilon function type                           ...         CPCM
Solvent:                                          ... CUSTOM
Radii:
  Scheme                                          ... Element-dependent radii
  Radius for C  used is    3.8550 Bohr (=   2.0400 Ang.)
  Radius for H  used is    2.4944 Bohr (=   1.3200 Ang.)
  Radius for O  used is    3.4469 Bohr (=   1.8240 Ang.)
Calculating surface                               ...        done! (  0.0s)
Cavity surface points                             ...         2123
Cavity Volume                                     ...    1726.4932
Cavity Surface-area                               ...     858.3516
Calculating surface distance matrix               ...        done! (  0.1s)
Performing Cholesky decomposition & store         ...        done! (  0.6s)
Overall time for CPCM initialization              ...                 0.7s

----------------------------------------D-I-I-S--------------------------------------------
Iteration    Energy (Eh)           Delta-E    RMSDP     MaxDP     DIISErr   Damp  Time(sec)
-------------------------------------------------------------------------------------------
               ***  Starting incremental Fock matrix formation  ***
    1    -835.7326287071880415     0.00e+00  4.34e-03  1.84e-01  3.01e-01  0.700   7.4
    2    -836.0071842841337002    -2.75e-01  3.00e-03  1.38e-01  1.32e-01  0.700   4.5
                               ***Turning on AO-DIIS***
    3    -836.1086715667565841    -1.01e-01  1.18e-03  3.65e-02  3.83e-02  0.700   4.4
    4    -836.1722309910098829    -6.36e-02  1.82e-03  4.05e-02  1.82e-02  0.000   4.3
    5    -836.3135216300356660    -1.41e-01  4.36e-04  1.86e-02  5.49e-03  0.000   4.4
                              *** Initializing SOSCF ***
---------------------------------------S-O-S-C-F--------------------------------------
Iteration    Energy (Eh)           Delta-E    RMSDP     MaxDP     MaxGrad    Time(sec)
--------------------------------------------------------------------------------------
    6    -836.3141600539761384    -6.38e-04  1.30e-04  5.39e-03  1.36e-03     4.3
               *** Restarting incremental Fock matrix formation ***
    7    -836.3142084684106976    -4.84e-05  9.33e-05  2.71e-03  2.68e-04     7.3
    8    -836.3142072143782570     1.25e-06  3.20e-05  1.19e-03  6.93e-04     5.0
    9    -836.3142154749994006    -8.26e-06  2.04e-05  5.77e-04  9.29e-05     4.2
   10    -836.3142154625027160     1.25e-08  7.58e-06  1.92e-04  5.57e-05     6.7
                 **** Energy Check signals convergence ****

               *****************************************************
               *                     SUCCESS                       *
               *           SCF CONVERGED AFTER  10 CYCLES          *
               *****************************************************

Recomputing exchange energy using gridx3       ... done (    9.486 sec)
Old exchange energy                            :    -20.894889048 Eh
New exchange energy                            :    -20.894941180 Eh
Exchange energy change after final integration :     -0.000052132 Eh
Total energy after final integration           :   -836.314267594 Eh
             **** ENERGY FILE WAS UPDATED (sp_reactant.en.tmp) ****

----------------
TOTAL SCF ENERGY
----------------

Total Energy       :       -836.31426759402984 Eh          -22757.26818 eV

Components:
Nuclear Repulsion  :       1112.40183511964960 Eh           30269.99283 eV
Electronic Energy  :      -1948.49344139637742 Eh          -53021.20209 eV
One Electron Energy:      -3389.98410016944172 Eh          -92246.15707 eV
Two Electron Energy:       1441.49065877306430 Eh           39224.95498 eV
CPCM Dielectric    :         -0.22260918577495 Eh              -6.05750 eV

Virial components:
Potential Energy   :      -1665.81648386718098 Eh          -45329.17102 eV
Kinetic Energy     :        829.50221627315102 Eh           22571.90284 eV
Virial Ratio       :          2.00821221593775

DFT components:
N(Alpha)           :       59.000036992880 electrons
N(Beta)            :       59.000036992880 electrons
N(Total)           :      118.000073985759 electrons
E(X)               :      -83.152455644629 Eh       
E(C)               :       -4.848330667112 Eh       
E(XC)              :      -88.000786311741 Eh       

CPCM Solvation Model Properties:
Surface-charge          :          1.98290484167716
Corrected charge        :          2.00000000000000
Outlying charge corr.   :          0.00001397667275 Eh               0.00038 eV
Free-energy (cav+disp)  :  This term is not implemented in the current solvation scheme

---------------
SCF CONVERGENCE
---------------

  Last Energy change         ...   -1.2497e-08  Tolerance :   1.0000e-06
  Last MAX-Density change    ...    1.9217e-04  Tolerance :   1.0000e-05
  Last RMS-Density change    ...    7.5772e-06  Tolerance :   1.0000e-06
  Last DIIS Error            ...    1.3560e-03  Tolerance :   1.0000e-06
  Last Orbital Gradient      ...    5.5719e-05  Tolerance :   5.0000e-05
  Last Orbital Rotation      ...    8.5139e-05  Tolerance :   5.0000e-05


----------------
ORBITAL ENERGIES
----------------

  NO   OCC          E(Eh)            E(eV) 
   0   2.0000     -19.069105      -518.8967 
   1   2.0000     -19.065710      -518.8043 
   2   2.0000     -18.974736      -516.3288 
   3   2.0000     -18.972322      -516.2631 
   4   2.0000     -18.970355      -516.2096 
   5   2.0000     -18.968620      -516.1624 
   6   2.0000     -10.171661      -276.7850 
   7   2.0000     -10.170903      -276.7644 
   8   2.0000     -10.168148      -276.6894 
   9   2.0000     -10.162868      -276.5457 
  10   2.0000     -10.144066      -276.0341 
  11   2.0000     -10.118605      -275.3412 
  12   2.0000     -10.116795      -275.2920 
  13   2.0000     -10.106434      -275.0101 
  14   2.0000     -10.105112      -274.9741 
  15   2.0000     -10.094122      -274.6750 
  16   2.0000      -0.954809       -25.9817 
  17   2.0000      -0.940492       -25.5921 
  18   2.0000      -0.912685       -24.8354 
  19   2.0000      -0.904454       -24.6114 
  20   2.0000      -0.821164       -22.3450 
  21   2.0000      -0.816126       -22.2079 
  22   2.0000      -0.752643       -20.4805 
  23   2.0000      -0.681737       -18.5510 
  24   2.0000      -0.665899       -18.1200 
  25   2.0000      -0.635771       -17.3002 
  26   2.0000      -0.558474       -15.1969 
  27   2.0000      -0.527755       -14.3610 
  28   2.0000      -0.507326       -13.8050 
  29   2.0000      -0.465285       -12.6610 
  30   2.0000      -0.450928       -12.2704 
  31   2.0000      -0.425856       -11.5881 
  32   2.0000      -0.413121       -11.2416 
  33   2.0000      -0.398724       -10.8498 
  34   2.0000      -0.374898       -10.2015 
  35   2.0000      -0.369034       -10.0419 
  36   2.0000      -0.356727        -9.7070 
  37   2.0000      -0.350327        -9.5329 
  38   2.0000      -0.341767        -9.3000 
  39   2.0000      -0.323580        -8.8050 
  40   2.0000      -0.311383        -8.4732 
  41   2.0000      -0.310764        -8.4563 
  42   2.0000      -0.302283        -8.2255 
  43   2.0000      -0.299611        -8.1528 
  44   2.0000      -0.295975        -8.0539 
  45   2.0000      -0.283876        -7.7247 
  46   2.0000      -0.279213        -7.5978 
  47   2.0000      -0.251773        -6.8511 
  48   2.0000      -0.244268        -6.6469 
  49   2.0000      -0.222791        -6.0625 
  50   2.0000      -0.199336        -5.4242 
  51   2.0000      -0.168820        -4.5938 
  52   2.0000      -0.160157        -4.3581 
  53   2.0000      -0.153578        -4.1791 
  54   2.0000      -0.148622        -4.0442 
  55   2.0000      -0.146839        -3.9957 
  56   2.0000      -0.142943        -3.8897 
  57   2.0000      -0.131803        -3.5865 
  58   2.0000      -0.126479        -3.4417 
  59   0.0000       0.024261         0.6602 
  60   0.0000       0.070629         1.9219 
  61   0.0000       0.108628         2.9559 
  62   0.0000       0.129343         3.5196 
  63   0.0000       0.152588         4.1521 
  64   0.0000       0.161384         4.3915 
  65   0.0000       0.179756         4.8914 
  66   0.0000       0.188858         5.1391 
  67   0.0000       0.202315         5.5053 
  68   0.0000       0.212393         5.7795 
  69   0.0000       0.213965         5.8223 
*Only the first 10 virtual orbitals were printed.

                    ********************************
                    * MULLIKEN POPULATION ANALYSIS *
                    ********************************

-----------------------
MULLIKEN ATOMIC CHARGES
-----------------------
   0 C :   -0.004547
   1 H :   -0.007534
   2 H :   -0.014098
   3 C :    0.008206
   4 C :    0.069339
   5 O :   -0.432280
   6 O :   -0.431875
   7 O :   -0.383355
   8 C :    0.223583
   9 H :   -0.035931
  10 C :   -0.090125
  11 H :   -0.035876
  12 C :   -0.009826
  13 C :    0.024871
  14 H :   -0.039528
  15 C :   -0.063289
  16 H :   -0.018765
  17 C :    0.236577
  18 H :   -0.014241
  19 O :   -0.349856
  20 H :    0.173168
  21 C :    0.061276
  22 O :   -0.433196
  23 O :   -0.432695
Sum of atomic charges:   -2.0000000

--------------------------------
MULLIKEN REDUCED ORBITAL CHARGES
--------------------------------
  0 C s       :     3.093864  s :     3.093864
      pz      :     1.026126  p :     2.886021
      px      :     1.005817
      py      :     0.854079
      dz2     :     0.001595  d :     0.024662
      dxz     :     0.005397
      dyz     :     0.000536
      dx2y2   :     0.008047
      dxy     :     0.009087

  1 H s       :     0.983459  s :     0.983459
      pz      :     0.004968  p :     0.024076
      px      :     0.006222
      py      :     0.012886

  2 H s       :     0.989665  s :     0.989665
      pz      :     0.005182  p :     0.024434
      px      :     0.007034
      py      :     0.012218

  3 C s       :     3.160999  s :     3.160999
      pz      :     0.991738  p :     2.762739
      px      :     0.878685
      py      :     0.892316
      dz2     :     0.004927  d :     0.068056
      dxz     :     0.010550
      dyz     :     0.006872
      dx2y2   :     0.021485
      dxy     :     0.024221

  4 C s       :     3.037288  s :     3.037288
      pz      :     0.868686  p :     2.754628
      px      :     0.932606
      py      :     0.953337
      dz2     :     0.009444  d :     0.138745
      dxz     :     0.027600
      dyz     :     0.012431
      dx2y2   :     0.043133
      dxy     :     0.046138

  5 O s       :     3.712858  s :     3.712858
      pz      :     1.538844  p :     4.705658
      px      :     1.644074
      py      :     1.522740
      dz2     :     0.001798  d :     0.013765
      dxz     :     0.001598
      dyz     :     0.002879
      dx2y2   :     0.002855
      dxy     :     0.004635

  6 O s       :     3.732893  s :     3.732893
      pz      :     1.554874  p :     4.685269
      px      :     1.342967
      py      :     1.787428
      dz2     :     0.001661  d :     0.013713
      dxz     :     0.003947
      dyz     :     0.000092
      dx2y2   :     0.005193
      dxy     :     0.002820

  7 O s       :     3.747895  s :     3.747895
      pz      :     1.536770  p :     4.620962
      px      :     1.670741
      py      :     1.413451
      dz2     :     0.003209  d :     0.014498
      dxz     :     0.002197
      dyz     :     0.003701
      dx2y2   :     0.001974
      dxy     :     0.003418

  8 C s       :     2.989693  s :     2.989693
      pz      :     0.843859  p :     2.722799
      px      :     0.986391
      py      :     0.892549
      dz2     :     0.012304  d :     0.063925
      dxz     :     0.013114
      dyz     :     0.017064
      dx2y2   :     0.008238
      dxy     :     0.013204

  9 H s       :     1.015586  s :     1.015586
      pz      :     0.004180  p :     0.020344
      px      :     0.007657
      py      :     0.008507

 10 C s       :     3.222729  s :     3.222729
      pz      :     0.963303  p :     2.834013
      px      :     0.949593
      py      :     0.921116
      dz2     :     0.006445  d :     0.033383
      dxz     :     0.008493
      dyz     :     0.006105
      dx2y2   :     0.005413
      dxy     :     0.006928

 11 H s       :     1.012952  s :     1.012952
      pz      :     0.007831  p :     0.022925
      px      :     0.006313
      py      :     0.008780

 12 C s       :     3.133016  s :     3.133016
      pz      :     0.917722  p :     2.837019
      px      :     0.970247
      py      :     0.949051
      dz2     :     0.008843  d :     0.039791
      dxz     :     0.009128
      dyz     :     0.006703
      dx2y2   :     0.007663
      dxy     :     0.007455

 13 C s       :     3.210691  s :     3.210691
      pz      :     0.882139  p :     2.729439
      px      :     0.882032
      py      :     0.965268
      dz2     :     0.004694  d :     0.034999
      dxz     :     0.009678
      dyz     :     0.004541
      dx2y2   :     0.007612
      dxy     :     0.008475

 14 H s       :     1.016684  s :     1.016684
      pz      :     0.009591  p :     0.022844
      px      :     0.007952
      py      :     0.005300

 15 C s       :     3.188307  s :     3.188307
      pz      :     0.955989  p :     2.841791
      px      :     0.954570
      py      :     0.931231
      dz2     :     0.003464  d :     0.033191
      dxz     :     0.010197
      dyz     :     0.004955
      dx2y2   :     0.006720
      dxy     :     0.007856

 16 H s       :     0.996071  s :     0.996071
      pz      :     0.007955  p :     0.022695
      px      :     0.005390
      py      :     0.009350

 17 C s       :     2.942068  s :     2.942068
      pz      :     0.940409  p :     2.754031
      px      :     0.915106
      py      :     0.898516
      dz2     :     0.008977  d :     0.067323
      dxz     :     0.016858
      dyz     :     0.014820
      dx2y2   :     0.010523
      dxy     :     0.016146

 18 H s       :     0.991516  s :     0.991516
      pz      :     0.007029  p :     0.022725
      px      :     0.004956
      py      :     0.010740

 19 O s       :     3.731752  s :     3.731752
      pz      :     1.543208  p :     4.605944
      px      :     1.414180
      py      :     1.648555
      dz2     :     0.001832  d :     0.012160
      dxz     :     0.004745
      dyz     :     0.002815
      dx2y2   :     0.001263
      dxy     :     0.001505

 20 H s       :     0.760443  s :     0.760443
      pz      :     0.023016  p :     0.066388
      px      :     0.024759
      py      :     0.018613

 21 C s       :     3.037193  s :     3.037193
      pz      :     0.923685  p :     2.761716
      px      :     0.960179
      py      :     0.877852
      dz2     :     0.045317  d :     0.139815
      dxz     :     0.041483
      dyz     :     0.032362
      dx2y2   :     0.011533
      dxy     :     0.009121

 22 O s       :     3.730364  s :     3.730364
      pz      :     1.492819  p :     4.689093
      px      :     1.656548
      py      :     1.539726
      dz2     :     0.003297  d :     0.013739
      dxz     :     0.004508
      dyz     :     0.003078
      dx2y2   :     0.001380
      dxy     :     0.001476

 23 O s       :     3.721817  s :     3.721817
      pz      :     1.399624  p :     4.696879
      px      :     1.731494
      py      :     1.565761
      dz2     :     0.005669  d :     0.013999
      dxz     :     0.003887
      dyz     :     0.003476
      dx2y2   :     0.000432
      dxy     :     0.000536



                     *******************************
                     * LOEWDIN POPULATION ANALYSIS *
                     *******************************

----------------------
LOEWDIN ATOMIC CHARGES
----------------------
   0 C :   -0.084245
   1 H :    0.010796
   2 H :    0.014452
   3 C :   -0.020147
   4 C :   -0.059972
   5 O :   -0.404197
   6 O :   -0.394691
   7 O :   -0.163192
   8 C :    0.076250
   9 H :    0.015348
  10 C :   -0.041466
  11 H :    0.010601
  12 C :   -0.065435
  13 C :   -0.020559
  14 H :    0.018448
  15 C :   -0.045469
  16 H :    0.018662
  17 C :    0.051230
  18 H :    0.009003
  19 O :   -0.166170
  20 H :    0.078024
  21 C :   -0.045544
  22 O :   -0.398324
  23 O :   -0.393404

-------------------------------
LOEWDIN REDUCED ORBITAL CHARGES
-------------------------------
  0 C s       :     2.890944  s :     2.890944
      pz      :     1.009100  p :     3.125837
      px      :     1.076232
      py      :     1.040505
      dz2     :     0.005003  d :     0.067463
      dxz     :     0.011003
      dyz     :     0.001169
      dx2y2   :     0.023002
      dxy     :     0.027286

  1 H s       :     0.916742  s :     0.916742
      pz      :     0.016303  p :     0.072462
      px      :     0.017843
      py      :     0.038317

  2 H s       :     0.913576  s :     0.913576
      pz      :     0.016662  p :     0.071972
      px      :     0.019384
      py      :     0.035926

  3 C s       :     2.897771  s :     2.897771
      pz      :     0.969505  p :     2.959646
      px      :     1.046313
      py      :     0.943828
      dz2     :     0.012228  d :     0.162730
      dxz     :     0.022264
      dyz     :     0.014048
      dx2y2   :     0.054645
      dxy     :     0.059546

  4 C s       :     2.862365  s :     2.862365
      pz      :     0.854763  p :     2.873909
      px      :     1.011821
      py      :     1.007326
      dz2     :     0.021586  d :     0.323698
      dxz     :     0.056817
      dyz     :     0.025977
      dx2y2   :     0.105289
      dxy     :     0.114029

  5 O s       :     3.570276  s :     3.570276
      pz      :     1.541134  p :     4.809334
      px      :     1.689373
      py      :     1.578828
      dz2     :     0.003341  d :     0.024588
      dxz     :     0.002500
      dyz     :     0.004370
      dx2y2   :     0.004983
      dxy     :     0.009394

  6 O s       :     3.568697  s :     3.568697
      pz      :     1.548731  p :     4.801306
      px      :     1.462136
      py      :     1.790439
      dz2     :     0.003648  d :     0.024689
      dxz     :     0.005289
      dyz     :     0.000120
      dx2y2   :     0.011037
      dxy     :     0.004595

  7 O s       :     3.468204  s :     3.468204
      pz      :     1.551214  p :     4.667804
      px      :     1.674748
      py      :     1.441842
      dz2     :     0.005482  d :     0.027184
      dxz     :     0.003425
      dyz     :     0.007410
      dx2y2   :     0.004131
      dxy     :     0.006737

  8 C s       :     2.861427  s :     2.861427
      pz      :     0.912846  p :     2.914662
      px      :     1.054532
      py      :     0.947284
      dz2     :     0.027083  d :     0.147660
      dxz     :     0.030962
      dyz     :     0.039653
      dx2y2   :     0.017973
      dxy     :     0.031989

  9 H s       :     0.920721  s :     0.920721
      pz      :     0.014322  p :     0.063931
      px      :     0.022864
      py      :     0.026745

 10 C s       :     2.875641  s :     2.875641
      pz      :     1.035640  p :     3.076874
      px      :     1.024640
      py      :     1.016594
      dz2     :     0.015633  d :     0.088950
      dxz     :     0.024322
      dyz     :     0.016930
      dx2y2   :     0.014312
      dxy     :     0.017754

 11 H s       :     0.917471  s :     0.917471
      pz      :     0.023186  p :     0.071929
      px      :     0.021559
      py      :     0.027184

 12 C s       :     2.888743  s :     2.888743
      pz      :     1.024115  p :     3.071809
      px      :     1.060574
      py      :     0.987120
      dz2     :     0.021813  d :     0.104883
      dxz     :     0.024986
      dyz     :     0.018496
      dx2y2   :     0.020864
      dxy     :     0.018724

 13 C s       :     2.870451  s :     2.870451
      pz      :     1.000069  p :     3.058302
      px      :     1.066478
      py      :     0.991756
      dz2     :     0.011877  d :     0.091805
      dxz     :     0.025849
      dyz     :     0.010881
      dx2y2   :     0.020573
      dxy     :     0.022625

 14 H s       :     0.912881  s :     0.912881
      pz      :     0.028547  p :     0.068671
      px      :     0.023529
      py      :     0.016595

 15 C s       :     2.879492  s :     2.879492
      pz      :     1.000242  p :     3.080125
      px      :     1.070458
      py      :     1.009426
      dz2     :     0.009561  d :     0.085852
      dxz     :     0.026447
      dyz     :     0.011724
      dx2y2   :     0.017684
      dxy     :     0.020436

 16 H s       :     0.912821  s :     0.912821
      pz      :     0.024782  p :     0.068517
      px      :     0.016097
      py      :     0.027639

 17 C s       :     2.847994  s :     2.847994
      pz      :     1.015962  p :     2.946928
      px      :     0.958015
      py      :     0.972951
      dz2     :     0.017508  d :     0.153847
      dxz     :     0.042298
      dyz     :     0.036134
      dx2y2   :     0.021316
      dxy     :     0.036591

 18 H s       :     0.916258  s :     0.916258
      pz      :     0.021248  p :     0.074739
      px      :     0.017473
      py      :     0.036019

 19 O s       :     3.456202  s :     3.456202
      pz      :     1.593920  p :     4.686799
      px      :     1.442984
      py      :     1.649895
      dz2     :     0.002318  d :     0.023168
      dxz     :     0.009823
      dyz     :     0.004564
      dx2y2   :     0.002670
      dxy     :     0.003794

 20 H s       :     0.743975  s :     0.743975
      pz      :     0.066561  p :     0.178001
      px      :     0.063272
      py      :     0.048168

 21 C s       :     2.852473  s :     2.852473
      pz      :     1.018044  p :     2.867488
      px      :     0.991950
      py      :     0.857494
      dz2     :     0.115313  d :     0.325583
      dxz     :     0.096355
      dyz     :     0.067835
      dx2y2   :     0.026375
      dxy     :     0.019704

 22 O s       :     3.571697  s :     3.571697
      pz      :     1.576179  p :     4.802021
      px      :     1.681725
      py      :     1.544117
      dz2     :     0.006048  d :     0.024605
      dxz     :     0.009125
      dyz     :     0.004988
      dx2y2   :     0.002032
      dxy     :     0.002413

 23 O s       :     3.568174  s :     3.568174
      pz      :     1.499799  p :     4.800237
      px      :     1.737125
      py      :     1.563313
      dz2     :     0.011498  d :     0.024993
      dxz     :     0.007493
      dyz     :     0.004658
      dx2y2   :     0.000713
      dxy     :     0.000632



                      *****************************
                      * MAYER POPULATION ANALYSIS *
                      *****************************

  NA   - Mulliken gross atomic population
  ZA   - Total nuclear charge
  QA   - Mulliken gross atomic charge
  VA   - Mayer's total valence
  BVA  - Mayer's bonded valence
  FA   - Mayer's free valence

  ATOM       NA         ZA         QA         VA         BVA        FA
  0 C      6.0045     6.0000    -0.0045     3.8807     3.8807     0.0000
  1 H      1.0075     1.0000    -0.0075     1.0263     1.0263     0.0000
  2 H      1.0141     1.0000    -0.0141     1.0181     1.0181    -0.0000
  3 C      5.9918     6.0000     0.0082     3.9085     3.9085     0.0000
  4 C      5.9307     6.0000     0.0693     4.5145     4.5145    -0.0000
  5 O      8.4323     8.0000    -0.4323     2.0669     2.0669    -0.0000
  6 O      8.4319     8.0000    -0.4319     2.0375     2.0375     0.0000
  7 O      8.3834     8.0000    -0.3834     2.0792     2.0792    -0.0000
  8 C      5.7764     6.0000     0.2236     3.8780     3.8780    -0.0000
  9 H      1.0359     1.0000    -0.0359     0.9985     0.9985    -0.0000
 10 C      6.0901     6.0000    -0.0901     3.9153     3.9153     0.0000
 11 H      1.0359     1.0000    -0.0359     1.0222     1.0222     0.0000
 12 C      6.0098     6.0000    -0.0098     3.6968     3.6968    -0.0000
 13 C      5.9751     6.0000     0.0249     3.9122     3.9122    -0.0000
 14 H      1.0395     1.0000    -0.0395     1.0157     1.0157    -0.0000
 15 C      6.0633     6.0000    -0.0633     3.8482     3.8482    -0.0000
 16 H      1.0188     1.0000    -0.0188     0.9853     0.9853    -0.0000
 17 C      5.7634     6.0000     0.2366     3.8834     3.8834    -0.0000
 18 H      1.0142     1.0000    -0.0142     1.0768     1.0768    -0.0000
 19 O      8.3499     8.0000    -0.3499     2.0454     2.0454    -0.0000
 20 H      0.8268     1.0000     0.1732     1.0135     1.0135     0.0000
 21 C      5.9387     6.0000     0.0613     4.5388     4.5388     0.0000
 22 O      8.4332     8.0000    -0.4332     2.0437     2.0437     0.0000
 23 O      8.4327     8.0000    -0.4327     2.0466     2.0466     0.0000

  Mayer bond orders larger than 0.100000
B(  0-C ,  1-H ) :   0.9110 B(  0-C ,  2-H ) :   0.9179 B(  0-C ,  3-C ) :   1.9449 
B(  3-C ,  4-C ) :   0.8443 B(  3-C ,  7-O ) :   1.0433 B(  4-C ,  5-O ) :   1.8792 
B(  4-C ,  6-O ) :   1.7833 B(  5-O ,  6-O ) :   0.1171 B(  6-O , 18-H ) :   0.1066 
B(  7-O ,  8-C ) :   0.9273 B(  8-C ,  9-H ) :   0.9054 B(  8-C , 10-C ) :   0.9936 
B(  8-C , 17-C ) :   0.9640 B( 10-C , 11-H ) :   0.9495 B( 10-C , 12-C ) :   1.7708 
B( 12-C , 13-C ) :   1.0794 B( 12-C , 21-C ) :   0.8459 B( 13-C , 14-H ) :   0.9755 
B( 13-C , 15-C ) :   1.7787 B( 15-C , 16-H ) :   0.9683 B( 15-C , 17-C ) :   0.9749 
B( 17-C , 18-H ) :   0.8854 B( 17-C , 19-O ) :   1.0351 B( 19-O , 20-H ) :   0.9712 
B( 21-C , 22-O ) :   1.8337 B( 21-C , 23-O ) :   1.8565 B( 22-O , 23-O ) :   0.1173 


-------
TIMINGS
-------

Total SCF time: 0 days 0 hours 1 min 5 sec 

Total time                  ....      65.288 sec
Sum of individual times     ....      64.194 sec  ( 98.3%)

SCF preparation             ....       1.637 sec  (  2.5%)
Fock matrix formation       ....      58.625 sec  ( 89.8%)
  Startup                   ....       0.317 sec  (  0.5% of F)
  Split-RI-J                ....       5.183 sec  (  8.8% of F)
  Chain of spheres X        ....      35.887 sec  ( 61.2% of F)
  XC integration            ....      10.490 sec  ( 17.9% of F)
    XC Preparation          ....       0.000 sec  (  0.0% of XC)
    Basis function eval.    ....       1.685 sec  ( 16.1% of XC)
    Density eval.           ....       0.993 sec  (  9.5% of XC)
    XC-Functional eval.     ....       0.290 sec  (  2.8% of XC)
    XC-Potential eval.      ....       1.064 sec  ( 10.1% of XC)
  CPCM terms                ....       5.578 sec  (  9.5% of F)
Diagonalization             ....       0.000 sec  (  0.0%)
Density matrix formation    ....       0.777 sec  (  1.2%)
Total Energy calculation    ....       0.463 sec  (  0.7%)
Population analysis         ....       0.872 sec  (  1.3%)
Orbital Transformation      ....       0.406 sec  (  0.6%)
Orbital Orthonormalization  ....       0.000 sec  (  0.0%)
DIIS solution               ....       0.919 sec  (  1.4%)
SOSCF solution              ....       0.496 sec  (  0.8%)
Finished LeanSCF after  66.0 sec

Maximum memory used throughout the entire LEANSCF-calculation: 31.0 MB


-------------------------------------------------------------------------------
                          DFT DISPERSION CORRECTION                            
                                                                               
                              DFTD3 V3.1  Rev 1                                
                          USING Becke-Johnson damping                          
-------------------------------------------------------------------------------
The B3LYP functional is recognized
Active option DFTDOPT                   ...         4   

molecular C6(AA) [au] = 6928.104088 


            DFT-D V3
 parameters
 s6 scaling factor         :     1.0000 
 a1 scaling factor         :     0.3981 
 s8 scaling factor         :     1.9889 
 a2 scaling factor         :     4.4211 
 ad hoc parameters k1-k3   :    16.0000     1.3333    -4.0000 

 Edisp/kcal,au: -33.251947657889  -0.052990345939 
 E6   /kcal   : -15.586009181 
 E8   /kcal   : -17.665938477 
 % E8         :  53.127530028 

-------------------------   ----------------
Dispersion correction           -0.052990346
-------------------------   ----------------


-------------------------   --------------------
FINAL SINGLE POINT ENERGY      -836.367257939969
-------------------------   --------------------



           ************************************************************
           *        Program running with 8 parallel MPI-processes     *
           *              working on a common directory               *
           ************************************************************

------------------------------------------------------------------------------
                              ORCA PROPERTY CALCULATIONS
------------------------------------------------------------------------------

GBWName                                 ... sp_reactant.gbw
Number of atoms                         ...     24
Number of basis functions               ...    264
Max core memory                         ...   3000 MB

Electric properties:
Dipole moment                           ... YES
Quadrupole moment                       ...  NO
Static polarizability (Dipole/Dipole)   ...  NO
Static polarizability (Dipole/Quad.)    ...  NO
Static polarizability (Quad./Quad.)     ...  NO
Static polarizability (Velocity)        ...  NO

Atomic electric properties:
Dipole moment                           ...  NO
Quadrupole moment                       ...  NO
Static polarizability                   ...  NO

Choice of electric origin               ... Center of mass
Position of electric origin             ...   111.112224    63.405597   105.113142

General magnetic properties:
Magnetizability                         ...  NO

EPR properties:
g-Tensor (aka g-matrix)                 ...  NO
Zero-Field splitting spin-orbit         ...  NO
Zero-field splitting spin-spin          ...  NO
Hyperfine couplings                     ...  NO (   0 nuclei)
Quadrupole couplings                    ...  NO (   0 nuclei)
Contact density                         ...  NO (   0 nuclei)

NMR properties:
Chemical shifts                         ...  NO (   0 nuclei)
Spin-rotation constants                 ...  NO (   0 nuclei)
Spin-spin couplings                     ...  NO (   0 nuclei,    0 pairs)

Choice of magnetic origin               ... GIAO
Position of magnetic origin             ...     0.000000     0.000000     0.000000

Properties with geometric perturbations:
SCF Hessian                             ...  NO
IR spectrum                             ...  NO
VCD spectrum                            ...  NO
X-ray spectroscopy properties:
SCF XES/XAS/RIXS spectra                ...  NO


-------------
DIPOLE MOMENT
-------------

Method             : SCF
Type of density    : Electron Density
Multiplicity       :   1
Irrep              :   0
Energy             :  -836.3142675940298432 Eh
Relativity type    : 
Basis              : AO
                                X                 Y                 Z
Electronic contribution:      0.452906106      -0.116514738       0.428815227
Nuclear contribution   :     -3.636053142      -1.868182435      -0.286097561
                        -----------------------------------------
Total Dipole Moment    :     -3.183147036      -1.984697173       0.142717666
                        -----------------------------------------
Magnitude (a.u.)       :      3.753906799
Magnitude (Debye)      :      9.541672793



--------------------
Rotational spectrum 
--------------------
 
Rotational constants in cm-1:             0.025294             0.014758             0.011956 
Rotational constants in MHz :           758.288007           442.427805           358.420922 

Dipole components along the rotational axes: 
x,y,z [a.u.] :    -0.918449    -3.259940    -1.618969 
x,y,z [Debye]:    -2.334513    -8.286108    -4.115092 

 

Dipole moment calculation done in   0.0 sec 

Maximum memory used throughout the entire PROP-calculation: 13.8 MB

--------------------------------
SUGGESTED CITATIONS FOR THIS RUN
--------------------------------

Below you find a list of papers that are relevant to this ORCA run
We neither can nor want to force you to cite these papers, but we appreciate if you do
You receive ORCA, which is the product of decades of hard work by many enthusiastic individuals, for free
The only thing we kindly ask in return is that you cite our papers,
We deeply appreciate it, if you show your appreciation for ORCA by not just citing the generic ORCA reference.

Please note that relegating all ORCA citations to the supporting information does *not* help us.
SI sections are not indexed - citations you put there will not count into any citation statistics
But we need these citations in order to attract the funding resources that allow us to do what we are doing

Therefore, if you are a happy ORCA user, please consider citing a few of the papers listed below in the main body of your paper

In addition to the list printed below, the program has created the file sp_reactant.bibtex that contains the list in bibtex format
You can import this file easily into all common literature databanks and citation aid programs


List of essential papers. We consider these as the minimum necessary citations

  1. Neese,F.
     Software update: the ORCA program system, version 5.0
     WIRES Comput. Molec. Sci., 2022 12(1)e1606
     doi.org/10.1002/wcms.1606

List of papers to cite with high priority. The work reported in these papers was absolutely
necessary for this run to complete.
Our perspective: the developers of density functionals and basis sets usually get cited in chemistry papers
Good! But without the algorithms to do something with them, the functionals or basis sets would not do anything.
Hence, in our opinion, the algorithm design and method developments papers are equally worthy of getting cited

  1. Neese,F.
     An improvement of the resolution of the identity approximation for the formation of the Coulomb matrix
     J. Comp. Chem., 2003 24(14)1740-1747
     doi.org/10.1002/jcc.10318
  2. Neese,F.; Wennmohs,F.; Hansen,A.; Becker,U.
     Efficient, approximate and parallel Hartree-Fock and hybrid DFT calculations. A 'chain-of-spheres' algorithm for the Hartree-Fock exchange
     Chem. Phys., 2009 356(1-3)98-109
     doi.org/10.1016/j.chemphys.2008.10.036
  3. Garcia-Rates,M.; Neese,F.
     Effect of the Solute Cavity on the Solvation Energy and its Derivatives within the Framework of the Gaussian Charge Scheme
     J. Comput. Chem., 2020 41 922-939
     doi.org/10.1002/jcc.26139
  4. Helmich-Paris,B.; de Souza,B.; Neese,F.; Izsák,R.
     An improved chain of spheres for exchange algorithm
     J. Chem. Phys., 2021 155 104109
     doi.org/doi: 10.1063/5.0058766.
  5. Neese,F.
     The SHARK Integral Generation and Digestion System
     J. Comp. Chem., 2022  1-16
     doi.org/10.1002/jcc.26942
  6. Grimme,S.; Antony,J.; Ehrlich,S.; Krieg,H.
     A consistent and accurate ab initio parametrization of density functional dispersion correction (DFT-D) for the 94 elements H-Pu
     J. Chem. Phys., 2010 132 154104
     doi.org/10.1063/1.3382344
  7. Grimme,S.; Ehrlich,S.; Goerigk,L.
     Effect of the damping function in dispersion corrected density functional theory
     J. Comput. Chem., 2011 32(7)1456-1465
     doi.org/10.1002/jcc.21759

List of suggested additional citations. These are papers that are important in the 'surrounding' of 
of this run, or papers that preceded the highly important papers. If you like your results we are grateful for a citation.

  1. Izsak,R.; Neese,F.
     An overlap fitted chain of spheres exchange method
     J. Chem. Phys., 2011 135 144105
     doi.org/10.1063/1.3646921
  2. Izsak,R.; Hansen,A.; Neese,F.
     The resolution of identity and chain of spheres approximations for the LPNO-CCSD singles Fock term
     Molec. Phys., 2012 110 2413-2417
     doi.org/10.1080/00268976.2012.687466
  3. Neese,F.
     The ORCA program system
     WIRES Comput. Molec. Sci., 2012 2(1)73-78
     doi.org/10.1002/wcms.81
  4. Izsak,R.; Neese,F.; Klopper,W.
     Robust fitting techniques in the chain of spheres approximation to the Fock exchange: The role of the complementary space
     J. Chem. Phys., 2013 139 
     doi.org/10.1063/1.4819264
  5. Neese,F.
     Software update: the ORCA program system, version 4.0
     WIRES Comput. Molec. Sci., 2018 8(1)1-6
     doi.org/10.1002/wcms.1327
  6. Neese,F.; Wennmohs,F.; Becker,U.; Riplinger,C.
     The ORCA quantum chemistry program package
     J. Chem. Phys., 2020 152 Art. No. L224108
     doi.org/10.1063/5.0004608

List of optional additional citations

  1. Neese,F.
     Approximate second-order SCF convergence for spin unrestricted wavefunctions
     Chem. Phys. Lett., 2000 325(1-3)93-98
     doi.org/10.1016/s0009-2614(00)00662-x

Timings for individual modules:

Sum of individual times          ...       82.698 sec (=   1.378 min)
Startup calculation              ...        7.671 sec (=   0.128 min)   9.3 %
SCF iterations                   ...       70.291 sec (=   1.172 min)  85.0 %
Property calculations            ...        4.737 sec (=   0.079 min)   5.7 %
                             ****ORCA TERMINATED NORMALLY****
TOTAL RUN TIME: 0 days 0 hours 1 minutes 29 seconds 154 msec
