
                                 *****************
                                 * O   R   C   A *
                                 *****************

                                            #,                                       
                                            ###                                      
                                            ####                                     
                                            #####                                    
                                            ######                                   
                                           ########,                                 
                                     ,,################,,,,,                         
                               ,,#################################,,                 
                          ,,##########################################,,             
                       ,#########################################, ''#####,          
                    ,#############################################,,   '####,        
                  ,##################################################,,,,####,       
                ,###########''''           ''''###############################       
              ,#####''   ,,,,##########,,,,          '''####'''          '####       
            ,##' ,,,,###########################,,,                        '##       
           ' ,,###''''                  '''############,,,                           
         ,,##''                                '''############,,,,        ,,,,,,###''
      ,#''                                            '''#######################'''  
     '                                                          ''''####''''         
             ,#######,   #######,   ,#######,      ##                                
            ,#'     '#,  ##    ##  ,#'     '#,    #''#        ,####,   ,####,        
            ##       ##  ##   ,#'  ##            #'  '#       #'       #'  '#        
            ##       ##  #######   ##           ,######,      #####,   #    #        
            '#,     ,#'  ##    ##  '#,     ,#' ,#      #,     #,   #   #,  ,#        
             '#######'   ##     ##  '#######'  #'      '#     '####' # '####'        



                #########################################################
                #                        -***-                          #
                #          Department of theory and spectroscopy        #
                #                                                       #
                #                      Frank Neese                      #
                #                                                       #
                #     Directorship, Architecture, Infrastructure        #
                #                    SHARK, DRIVERS                     #
                #        Core code/Algorithms in most modules           #
                #                                                       #
                #        Max Planck Institute fuer Kohlenforschung      #
                #                Kaiser Wilhelm Platz 1                 #
                #                 D-45470 Muelheim/Ruhr                 #
                #                      Germany                          #
                #                                                       #
                #                  All rights reserved                  #
                #                        -***-                          #
                #########################################################


                         Program Version 6.0.1  -  RELEASE   -


 With contributions from (in alphabetic order):
[Max-Planck-Institut fuer Kohlenforschung]                               
  Daniel Aravena         : Magnetic Suceptibility                        
  Michael Atanasov       : Ab Initio Ligand Field Theory (pilot matlab implementation)
  Alexander A. Auer      : GIAO ZORA, VPT2 properties, NMR spectrum      
  Ute Becker             : All parallelization in ORCA, NUMFREQ, NUMCALC 
  Giovanni Bistoni       : ED, misc. LED, open-shell LED, HFLD           
  Martin Brehm           : Molecular dynamics                            
  Dmytro Bykov           : pre 5.0 version of the SCF Hessian            
  Marcos Casanova-Páez   : Triplet and SCS-CIS(D). UHF-(DLPNO)-IP/EA/STEOM-CCSD. UHF-CVS-IP/STEOM-CCSD   
  Vijay G. Chilkuri      : MRCI spin determinant printing, contributions to CSF-ICE 
  Pauline Colinet        : FMM embedding                                 
  Dipayan Datta          : RHF DLPNO-CCSD density                        
  Achintya Kumar Dutta   : EOM-CC, STEOM-CC                              
  Nicolas Foglia         : Exact transition moments, OPA infrastructure, MCD improvements    
  Dmitry Ganyushin       : Spin-Orbit,Spin-Spin,Magnetic field MRCI      
  Miquel Garcia-Rates    : C-PCM and meta-GGA Hessian, CCSD/C-PCM, Gaussian charge scheme 
  Tiago L. C. Gouveia    : GS-ROHF, GS-ROCIS                             
  Yang Guo               : DLPNO-NEVPT2, F12-NEVPT2, CIM, IAO-localization        
  Andreas Hansen         : Spin unrestricted coupled pair/coupled cluster methods 
  Ingolf Harden          : AUTO-CI MPn and infrastructure                
  Benjamin Helmich-Paris : MC-RPA, TRAH-(SCF,CASSCF), AVAS, COSX integrals, SCF dyn. polar. 
  Lee Huntington         : MR-EOM, pCC                                   
  Robert Izsak           : Overlap fitted RIJCOSX, COSX-SCS-MP3, EOM     
  Riya Kayal             : Wick's Theorem for AUTO-CI, AUTO-CI UHF-CCSDT 
  Emily Kempfer          : AUTO-CI, RHF CISDT and CCSDT                  
  Christian Kollmar      : KDIIS, OOCD, Brueckner-CCSD(T), CCSD density, CASPT2, CASPT2-K, improved NEVPT2 
  Axel Koslowski         : Symmetry handling                             
  Simone Kossmann        : meta-GGA functionals, TD-DFT gradient, OOMP2, (MP2 Hessian; deprecated post 5.0) 
  Lucas Lang             : DCDCAS                                        
  Marvin Lechner         : AUTO-CI (C++ implementation), FIC-MRCC        
  Spencer Leger          : CASSCF response                               
  Dagmar Lenk            : GEPOL surface, SMD, ORCA-2-JSON               
  Dimitrios Liakos       : Extrapolation schemes; Compound Job, initial MDCI parallelization 
  Dimitrios Manganas     : Further ROCIS development; embedding schemes. LFT, Crystal Embedding 
  Dimitrios Pantazis     : SARC Basis sets                               
  Anastasios Papadopoulos: AUTO-CI, single reference methods and gradients 
  Taras Petrenko         : pre 6.0 DFT Hessian and TD-DFT gradient, (ASA, deprecated), ECA, 1-Electron XAS/XES, NRVS 
  Peter Pinski           : DLPNO-MP2, DLPNO-MP2 Gradient                 
  Christoph Reimann      : Effective Core Potentials                     
  Marius Retegan         : Local ZFS, SOC                                
  Christoph Riplinger    : Optimizer, TS searches, QM/MM, DLPNO-CCSD(T), (RO)-DLPNO pert. Triples 
  Michael Roemelt        : Original ROCIS implementation                 
  Masaaki Saitow         : Open-shell DLPNO-CCSD energy and density      
  Barbara Sandhoefer     : DKH picture change effects                    
  Kantharuban Sivalingam : CASSCF convergence/infrastructure, NEVPT2 and variants, FIC-MRCI 
  Bernardo de Souza      : ESD, SOC TD-DFT                               
  Georgi L. Stoychev     : AutoAux, RI-MP2 NMR, DLPNO-MP2 response, X2C  
  Van Anh Tran           : RI-MP2 g-tensors                              
  Willem Van den Heuvel  : Paramagnetic NMR                              
  Zikuan Wang            : NOTCH, Electric field optimization            
  Frank Wennmohs         : Technical directorship and infrastructure     
  Hang Xu                : AUTO-CI-Response properties                   
                                                                         
[FACCTs GmbH]                                                            
  Markus Bursch, Miquel Garcia-Rates, Christoph Riplinger, Bernardo de Souza, Georgi L. Stoychev 
                                                                 
  APM, Basis sets (HGBS, AHGBS, def-TZVP (Ac-Lr), def2-XVPD (La-Lu)), CI-OPT, improved COSX, DLPNO-Multilevel,           
  DOCKER, DRACO, updates on ESD, GOAT, IRC, LR-CPCM, MBIS, meta-GGA TD-DFT gradient, ML-optimized integration grids, 
  MM, NACMEs, nearIR, NEB, NEB-TS, NL-DFT gradient (VV10), 2- and 3-layer-ONIOM, interface openCOSMO-RS, QMMM,   
  Crystal-QMMM, SF, symmetry and pop. for TD-DFT, r2SCAN hybrids, SOLVATOR                                   
                                                                         
[Other institutions]                                                     
  V. Asgeirsson          : NEB                                           
  Christoph Bannwarth    : sTDA-DFT, sTD-DFT, PBEh-3c, B97-3c, D3        
  Sebastian Ehlert       : rSCAN, r2SCAN, r2SCAN-3c, D4, dhf basis sets  
  Marvin Friede          : D4 for Fr, Ra, Ac-Lr                          
  Lars Goerigk           : TD-DFT with DH, B97 family of functionals     
  Stefan Grimme          : VdW corrections, initial TS optimization, DFT functionals, gCP, sTDA/sTD-DF 
  Waldemar Hujo          : DFT-NL                                        
  H. Jonsson             : NEB                                           
  Holger Kruse           : gCP                                           
  Marcel Mueller         : wB97X-3c, vDZP basis set                      
  Hagen Neugebauer       : wr2SCAN                                       
  Tobias Risthaus        : range-separated hybrid DFT                    
  Lukas Wittmann         : regularized MP2, r2SCAN double-hybrids, wr2SCAN        
                                                                         
We gratefully acknowledge several colleagues who have allowed us to      
interface, adapt or use parts of their codes:                            
  Ed Valeev, F. Pavosevic, A. Kumar             : LibInt (2-el integral package), F12 methods 
  Garnet Chan, S. Sharma, J. Yang, R. Olivares  : DMRG                   
  Ulf Ekstrom                                   : XCFun DFT Library      
  Mihaly Kallay                                 : mrcc  (arbitrary order and MRCC methods)
  Frank Weinhold                                : gennbo (NPA and NBO analysis)           
  Simon Mueller                                 : openCOSMO-RS                            
  Christopher J. Cramer and Donald G. Truhlar   : smd solvation model                     
  S Lehtola, MJT Oliveira, MAL Marques          : LibXC Library                           
  Liviu Ungur et al                             : ANISO software                          


 Your calculation uses the libint2 library for the computation of 2-el integrals
 For citations please refer to: http://libint.valeyev.net

 Your ORCA version has been built with support for libXC version: 6.2.2
 For citations please refer to: https://libxc.gitlab.io

 This ORCA versions uses:
   CBLAS   interface :  Fast vector & matrix operations
   LAPACKE interface :  Fast linear algebra routines
   SCALAPACK package :  Parallel linear algebra routines
   Shared memory     :  Shared parallel matrices
   BLAS/LAPACK       :  OpenBLAS 0.3.27  USE64BITINT DYNAMIC_ARCH NO_AFFINITY Bulldozer SINGLE_THREADED
        Core in use  :  Bulldozer
   Copyright (c) 2011-2014, The OpenBLAS Project


NOTE: MaxCore=3000 MB was set to SCF,MP2,MDCI,CIPSI,MRCI and CIS
      => If you want to overwrite this, your respective input block should be placed after the MaxCore statement
Your calculation utilizes the atom-pairwise dispersion correction
with the Becke-Johnson damping scheme (D3BJ)


================================================================================

----- Orbital basis set information -----
Your calculation utilizes the basis: def2-SVP
   F. Weigend and R. Ahlrichs, Phys. Chem. Chem. Phys. 7, 3297 (2005).

----- AuxJ basis set information -----
Your calculation utilizes the auxiliary basis: def2/J
   F. Weigend, Phys. Chem. Chem. Phys. 8, 1057 (2006).

================================================================================
                                        WARNINGS
                       Please study these warnings very carefully!
================================================================================


================================================================================
                                       INPUT FILE
================================================================================
NAME = sp_ts.inp
|  1> ! B3LYP D3BJ def2-SVP def2/J RIJCOSX CPCM KeepDens
|  2> %maxcore 3000
|  3> %pal nprocs 8 end
|  4> %cpcm epsilon 4.0 end
|  5> %scf MaxIter 300 end
|  6> * xyz -2 1
|  7> C     60.14190600    34.25017500    56.86750500
|  8> H     60.65410400    33.35229400    57.20242100
|  9> H     60.73860600    35.07435300    56.47491200
| 10> C     58.80287300    34.45194900    57.16141800
| 11> C     58.13069700    35.79868100    56.84307300
| 12> O     58.86276300    36.77666300    56.53446600
| 13> O     56.87734100    35.82963400    56.93983700
| 14> O     58.04533200    33.51170800    57.60013500
| 15> C     57.53567900    32.20862600    56.01945400
| 16> H     56.92805500    31.57263500    56.66681400
| 17> C     58.86068700    31.87524000    55.78984900
| 18> H     59.36035100    31.12725100    56.40326400
| 19> C     59.64119800    32.67145500    54.96010600
| 20> C     58.97535300    33.57937300    54.02371700
| 21> H     59.61208400    34.05213900    53.27111900
| 22> C     57.64453400    33.77154800    54.05277400
| 23> H     57.14874400    34.42947900    53.33266900
| 24> C     56.77153500    33.13738000    55.09626400
| 25> H     56.36648800    33.96180100    55.70835200
| 26> O     55.70405500    32.44082700    54.44502300
| 27> H     55.04194600    32.20048300    55.11214300
| 28> C     61.07068900    32.21901900    54.67969600
| 29> O     61.72429900    31.71851300    55.62834500
| 30> O     61.44865900    32.31879300    53.48933100
| 31> *
| 32> 
| 33>                          ****END OF INPUT****
================================================================================

                       ****************************
                       * Single Point Calculation *
                       ****************************

---------------------------------
CARTESIAN COORDINATES (ANGSTROEM)
---------------------------------
  C     60.141906   34.250175   56.867505
  H     60.654104   33.352294   57.202421
  H     60.738606   35.074353   56.474912
  C     58.802873   34.451949   57.161418
  C     58.130697   35.798681   56.843073
  O     58.862763   36.776663   56.534466
  O     56.877341   35.829634   56.939837
  O     58.045332   33.511708   57.600135
  C     57.535679   32.208626   56.019454
  H     56.928055   31.572635   56.666814
  C     58.860687   31.875240   55.789849
  H     59.360351   31.127251   56.403264
  C     59.641198   32.671455   54.960106
  C     58.975353   33.579373   54.023717
  H     59.612084   34.052139   53.271119
  C     57.644534   33.771548   54.052774
  H     57.148744   34.429479   53.332669
  C     56.771535   33.137380   55.096264
  H     56.366488   33.961801   55.708352
  O     55.704055   32.440827   54.445023
  H     55.041946   32.200483   55.112143
  C     61.070689   32.219019   54.679696
  O     61.724299   31.718513   55.628345
  O     61.448659   32.318793   53.489331

----------------------------
CARTESIAN COORDINATES (A.U.)
----------------------------
  NO LB      ZA    FRAG     MASS         X           Y           Z
   0 C     6.0000    0    12.011  113.651732   64.723451  107.464010
   1 H     1.0000    0     1.008  114.619645   63.026702  108.096910
   2 H     1.0000    0     1.008  114.779331   66.280921  106.722117
   3 C     6.0000    0    12.011  111.121326   65.104748  108.019425
   4 C     6.0000    0    12.011  109.851097   67.649703  107.417841
   5 O     8.0000    0    15.999  111.234502   69.497821  106.834658
   6 O     8.0000    0    15.999  107.482598   67.708196  107.600698
   7 O     8.0000    0    15.999  109.689781   63.327950  108.848480
   8 C     6.0000    0    12.011  108.726676   60.865482  105.861426
   9 H     1.0000    0     1.008  107.578433   59.663633  107.084759
  10 C     6.0000    0    12.011  111.230578   60.235474  105.427536
  11 H     1.0000    0     1.008  112.174807   58.821980  106.586722
  12 C     6.0000    0    12.011  112.705531   61.740102  103.859549
  13 C     6.0000    0    12.011  111.447266   63.455819  102.090030
  14 H     1.0000    0     1.008  112.650513   64.349217  100.667826
  15 C     6.0000    0    12.011  108.932382   63.818977  102.144940
  16 H     1.0000    0     1.008  107.995475   65.062286  100.784138
  17 C     6.0000    0    12.011  107.282653   62.620573  104.116850
  18 H     1.0000    0     1.008  106.517225   64.178503  105.273529
  19 O     8.0000    0    15.999  105.265408   61.304279  102.886183
  20 H     1.0000    0     1.008  104.014204   60.850094  104.146857
  21 C     6.0000    0    12.011  115.406877   60.885122  103.329651
  22 O     8.0000    0    15.999  116.642021   59.939303  105.122337
  23 O     8.0000    0    15.999  116.121137   61.073668  101.080187

--------------------------------
INTERNAL COORDINATES (ANGSTROEM)
--------------------------------
 C      0   0   0     0.000000000000     0.00000000     0.00000000
 H      1   0   0     1.086602875213     0.00000000     0.00000000
 H      1   2   0     1.090618874462   118.52225884     0.00000000
 C      1   2   3     1.385679246339   120.69411775   192.09854206
 C      4   1   2     1.538457407218   120.38344052   172.17171628
 O      5   4   1     1.260003056000   118.44258003   347.75224816
 O      5   4   1     1.257466748125   116.17484204   169.00190345
 O      4   1   2     1.284676656148   122.39042809   346.31925366
 C      8   4   1     2.111000071742   109.78161938   284.33275387
 H      9   8   4     1.092138474305    92.86302160   180.36748448
 C      9   8   4     1.385464139227    92.39201797    60.80857558
 H     11   9   8     1.088774365625   120.71997928    81.30091114
 C     11   9   8     1.389830634788   119.87876336   274.16865250
 C     13  11   9     1.464407394843   118.78901456   340.87670321
 H     14  13  11     1.093315053734   116.32435808   190.57040821
 C     14  13  11     1.344936708784   121.64717859     7.66169158
 H     16  14  13     1.094181034329   121.33618739   181.74144427
 C     16  14  13     1.501055524065   122.01469350     3.88601706
 H     18  16  14     1.103804682539   106.46086565   114.06510404
 O     18  16  14     1.431368042220   108.84702231   232.60557979
 H     20  18  16     0.970155998083   108.46168861   192.22691941
 C     13  11   9     1.525376222863   117.78224638   183.26591476
 O     22  13  11     1.256044272045   117.84047514   320.61222174
 O     22  13  11     1.252910613412   115.70537974   136.69083684

---------------------------
INTERNAL COORDINATES (A.U.)
---------------------------
 C      0   0   0     0.000000000000     0.00000000     0.00000000
 H      1   0   0     2.053381850484     0.00000000     0.00000000
 H      1   2   0     2.060970989219   118.52225884     0.00000000
 C      1   2   3     2.618554285039   120.69411775   192.09854206
 C      4   1   2     2.907263168345   120.38344052   172.17171628
 O      5   4   1     2.381060703744   118.44258003   347.75224816
 O      5   4   1     2.376267776469   116.17484204   169.00190345
 O      4   1   2     2.427687050761   122.39042809   346.31925366
 C      8   4   1     3.989212004280   109.78161938   284.33275387
 H      9   8   4     2.063842616755    92.86302160   180.36748448
 C      9   8   4     2.618147791509    92.39201797    60.80857558
 H     11   9   8     2.057485372665   120.71997928    81.30091114
 C     11   9   8     2.626399272283   119.87876336   274.16865250
 C     13  11   9     2.767328924742   118.78901456   340.87670321
 H     14  13  11     2.066066029650   116.32435808   190.57040821
 C     14  13  11     2.541562047059   121.64717859     7.66169158
 H     16  14  13     2.067702495813   121.33618739   181.74144427
 C     16  14  13     2.836583852292   122.01469350     3.88601706
 H     18  16  14     2.085888555338   106.46086565   114.06510404
 O     18  16  14     2.704893596644   108.84702231   232.60557979
 H     20  18  16     1.833329143558   108.46168861   192.22691941
 C     13  11   9     2.882543312407   117.78224638   183.26591476
 O     22  13  11     2.373579686245   117.84047514   320.61222174
 O     22  13  11     2.367657929632   115.70537974   136.69083684

---------------------
BASIS SET INFORMATION
---------------------
There are 3 groups of distinct atoms

 Group   1 Type C   : 7s4p1d contracted to 3s2p1d pattern {511/31/1}
 Group   2 Type H   : 4s1p contracted to 2s1p pattern {31/1}
 Group   3 Type O   : 7s4p1d contracted to 3s2p1d pattern {511/31/1}

Atom   0C    basis set group =>   1
Atom   1H    basis set group =>   2
Atom   2H    basis set group =>   2
Atom   3C    basis set group =>   1
Atom   4C    basis set group =>   1
Atom   5O    basis set group =>   3
Atom   6O    basis set group =>   3
Atom   7O    basis set group =>   3
Atom   8C    basis set group =>   1
Atom   9H    basis set group =>   2
Atom  10C    basis set group =>   1
Atom  11H    basis set group =>   2
Atom  12C    basis set group =>   1
Atom  13C    basis set group =>   1
Atom  14H    basis set group =>   2
Atom  15C    basis set group =>   1
Atom  16H    basis set group =>   2
Atom  17C    basis set group =>   1
Atom  18H    basis set group =>   2
Atom  19O    basis set group =>   3
Atom  20H    basis set group =>   2
Atom  21C    basis set group =>   1
Atom  22O    basis set group =>   3
Atom  23O    basis set group =>   3
---------------------------------
AUXILIARY/J BASIS SET INFORMATION
---------------------------------
There are 3 groups of distinct atoms

 Group   1 Type C   : 12s5p4d2f1g contracted to 6s4p3d1f1g pattern {711111/2111/211/2/1}
 Group   2 Type H   : 5s2p1d contracted to 3s1p1d pattern {311/2/1}
 Group   3 Type O   : 12s5p4d2f1g contracted to 6s4p3d1f1g pattern {711111/2111/211/2/1}

Atom   0C    basis set group =>   1
Atom   1H    basis set group =>   2
Atom   2H    basis set group =>   2
Atom   3C    basis set group =>   1
Atom   4C    basis set group =>   1
Atom   5O    basis set group =>   3
Atom   6O    basis set group =>   3
Atom   7O    basis set group =>   3
Atom   8C    basis set group =>   1
Atom   9H    basis set group =>   2
Atom  10C    basis set group =>   1
Atom  11H    basis set group =>   2
Atom  12C    basis set group =>   1
Atom  13C    basis set group =>   1
Atom  14H    basis set group =>   2
Atom  15C    basis set group =>   1
Atom  16H    basis set group =>   2
Atom  17C    basis set group =>   1
Atom  18H    basis set group =>   2
Atom  19O    basis set group =>   3
Atom  20H    basis set group =>   2
Atom  21C    basis set group =>   1
Atom  22O    basis set group =>   3
Atom  23O    basis set group =>   3


           ************************************************************
           *        Program running with 8 parallel MPI-processes     *
           *              working on a common directory               *
           ************************************************************
------------------------------------------------------------------------------
                             ORCA STARTUP CALCULATIONS
                           -- RI-GTO INTEGRALS CHOSEN --
------------------------------------------------------------------------------
------------------------------------------------------------------------------
                   ___                                                        
                  /   \      - P O W E R E D   B Y -                         
                 /     \                                                     
                 |  |  |   _    _      __       _____    __    __             
                 |  |  |  | |  | |    /  \     |  _  \  |  |  /  |          
                  \  \/   | |  | |   /    \    | | | |  |  | /  /          
                 / \  \   | |__| |  /  /\  \   | |_| |  |  |/  /          
                |  |  |   |  __  | /  /__\  \  |    /   |      \           
                |  |  |   | |  | | |   __   |  |    \   |  |\   \          
                \     /   | |  | | |  |  |  |  | |\  \  |  | \   \       
                 \___/    |_|  |_| |__|  |__|  |_| \__\ |__|  \__/        
                                                                              
                      - O R C A' S   B I G   F R I E N D -                    
                                      &                                       
                       - I N T E G R A L  F E E D E R -                       
                                                                              
 v1 FN, 2020, v2 2021, v3 2022-2024                                           
------------------------------------------------------------------------------


----------------------
SHARK INTEGRAL PACKAGE
----------------------

Number of atoms                             ...     24
Number of basis functions                   ...    264
Number of shells                            ...    120
Maximum angular momentum                    ...      2
Integral batch strategy                     ... SHARK/LIBINT Hybrid
RI-J (if used) integral strategy            ... SPLIT-RIJ (Revised 2003 algorithm where possible)
Printlevel                                  ...      1
Contraction scheme used                     ... SEGMENTED contraction
Prescreening option                         ... SCHWARTZ
   Thresh                                   ... 1.000e-10
   Tcut                                     ... 1.000e-11
   Tpresel                                  ... 1.000e-11 
Coulomb Range Separation                    ... NOT USED
Exchange Range Separation                   ... NOT USED
Multipole approximations                    ... NOT USED
Finite Nucleus Model                        ... NOT USED
CABS basis                                  ... NOT available
Auxiliary Coulomb fitting basis             ... AVAILABLE
   # of basis functions in Aux-J            ...    872
   # of shells in Aux-J                     ...    280
   Maximum angular momentum in Aux-J        ...      4
Auxiliary J/K fitting basis                 ... NOT available
Auxiliary Correlation fitting basis         ... NOT available
Auxiliary 'external' fitting basis          ... NOT available

Checking pre-screening integrals            ... done (  0.0 sec) Dimension = 120
Check shell pair data                       ... done (  0.0 sec)
Shell pair information
Shell pair cut-off parameter TPreSel        ...   1.0e-11
Total number of shell pairs                 ...      7260
Shell pairs after pre-screening             ...      6242
Total number of primitive shell pairs       ...     27260
Primitive shell pairs kept                  ...     15535
          la=0 lb=0:   1776 shell pairs
          la=1 lb=0:   2246 shell pairs
          la=1 lb=1:    747 shell pairs
          la=2 lb=0:    826 shell pairs
          la=2 lb=1:    543 shell pairs
          la=2 lb=2:    104 shell pairs

Calculating one electron integrals          ... done (  0.0 sec)
Calculating RI/J V-Matrix + Cholesky decomp.... done (  0.3 sec)
Calculating Nuclear repulsion               ... done (  0.0 sec) ENN=   1112.667652299645 Eh

Diagonalization of the overlap matrix:
Smallest eigenvalue                        ... 3.584e-04
Time for diagonalization                   ...    0.021 sec
Threshold for overlap eigenvalues          ... 1.000e-07
Number of eigenvalues below threshold      ... 0
Time for construction of square roots      ...    0.020 sec
Total time needed                          ...    0.056 sec

-------------------
DFT GRID GENERATION
-------------------

General Integration Accuracy     IntAcc      ... 4.388
Radial Grid Type                 RadialGrid  ... OptM3 with GC (2021)
Angular Grid (max. ang.)         AngularGrid ... 4 (Lebedev-302)
Angular grid pruning method      GridPruning ... 4 (adaptive)
Weight generation scheme         WeightScheme... mBecke (2022)
Basis function cutoff            BFCut       ... 1.0000e-10
Integration weight cutoff        WCut        ... 1.0000e-14
Partially contracted basis set               ... off
Rotationally invariant grid construction     ... off
Angular grids for H and He will be reduced by one unit

Total number of grid points                  ...   121602
Total number of batches                      ...     1910
Average number of points per batch           ...       63
Average number of grid points per atom       ...     5067

--------------------
COSX GRID GENERATION
--------------------

GRIDX 1
-------
General Integration Accuracy     IntAcc      ... 3.816
Radial Grid Type                 RadialGrid  ... OptM3 with GC (2021)
Angular Grid (max. ang.)         AngularGrid ... 1 (Lebedev-50)
Angular grid pruning method      GridPruning ... 4 (adaptive)
Weight generation scheme         WeightScheme... mBecke (2022)
Basis function cutoff            BFCut       ... 1.0000e-10
Integration weight cutoff        WCut        ... 1.0000e-14
Partially contracted basis set               ... on
Rotationally invariant grid construction     ... off
Angular grids for H and He will be reduced by one unit

Total number of grid points                  ...    15388
Total number of batches                      ...      134
Average number of points per batch           ...      114
Average number of grid points per atom       ...      641
UseSFitting                                  ... on

GRIDX 2
-------
General Integration Accuracy     IntAcc      ... 4.020
Radial Grid Type                 RadialGrid  ... OptM3 with GC (2021)
Angular Grid (max. ang.)         AngularGrid ... 2 (Lebedev-110)
Angular grid pruning method      GridPruning ... 4 (adaptive)
Weight generation scheme         WeightScheme... mBecke (2022)
Basis function cutoff            BFCut       ... 1.0000e-10
Integration weight cutoff        WCut        ... 1.0000e-14
Partially contracted basis set               ... on
Rotationally invariant grid construction     ... off
Angular grids for H and He will be reduced by one unit

Total number of grid points                  ...    34365
Total number of batches                      ...      282
Average number of points per batch           ...      121
Average number of grid points per atom       ...     1432
UseSFitting                                  ... on

GRIDX 3
-------
General Integration Accuracy     IntAcc      ... 4.338
Radial Grid Type                 RadialGrid  ... OptM3 with GC (2021)
Angular Grid (max. ang.)         AngularGrid ... 3 (Lebedev-194)
Angular grid pruning method      GridPruning ... 4 (adaptive)
Weight generation scheme         WeightScheme... mBecke (2022)
Basis function cutoff            BFCut       ... 1.0000e-10
Integration weight cutoff        WCut        ... 1.0000e-14
Partially contracted basis set               ... on
Rotationally invariant grid construction     ... off
Angular grids for H and He will be reduced by one unit

Total number of grid points                  ...    75520
Total number of batches                      ...      601
Average number of points per batch           ...      125
Average number of grid points per atom       ...     3147
UseSFitting                                  ... on
Initializing property integral containers    ... done (  0.1 sec)

SHARK setup successfully completed in   6.3 seconds

Maximum memory used throughout the entire STARTUP-calculation: 33.8 MB


           ************************************************************
           *        Program running with 8 parallel MPI-processes     *
           *              working on a common directory               *
           ************************************************************
-------------------------------------------------------------------------------
                                 ORCA GUESS
                   Start orbitals & Density for SCF / CASSCF
-------------------------------------------------------------------------------

------------
SCF SETTINGS
------------
Hamiltonian:
 Density Functional     Method          .... DFT(GTOs)
 Exchange Functional    Exchange        .... B88
   X-Alpha parameter    XAlpha          ....  0.666667
   Becke's b parameter  XBeta           ....  0.004200
 Correlation Functional Correlation     .... LYP
 LDA part of GGA corr.  LDAOpt          .... VWN-5
 Gradients option       PostSCFGGA      .... off
 Hybrid DFT is turned on
   Fraction HF Exchange ScalHFX         ....  0.200000
   Scaling of DF-GGA-X  ScalDFX         ....  0.720000
   Scaling of DF-GGA-C  ScalDFC         ....  0.810000
   Scaling of DF-LDA-C  ScalLDAC        ....  1.000000
   Perturbative correction              ....  0.000000
   NL short-range parameter             ....  4.800000
 RI-approximation to the Coulomb term is turned on
   Number of AuxJ basis functions       .... 872
   RIJ-COSX (HFX calculated with COS-X)).... on


General Settings:
 Integral files         IntName         .... sp_ts
 Hartree-Fock type      HFTyp           .... RHF
 Total Charge           Charge          ....   -2
 Multiplicity           Mult            ....    1
 Number of Electrons    NEL             ....  118
 Basis Dimension        Dim             ....  264
 Nuclear Repulsion      ENuc            ....   1112.6676522996 Eh

Convergence Acceleration:
 AO-DIIS                CNVDIIS         .... on
   Start iteration      DIISMaxIt       ....    12
   Startup error        DIISStart       ....  0.200000
   # of expansion vecs  DIISMaxEq       ....     5
   Bias factor          DIISBfac        ....   1.050
   Max. coefficient     DIISMaxC        ....  10.000
 MO-DIIS                CNVKDIIS        .... off
 Trust-Rad. Augm. Hess. CNVTRAH         .... auto
   Auto Start mean grad. ratio tolernc. ....  1.125000
   Auto Start start iteration           ....    50
   Auto Start num. interpolation iter.  ....    10
   Max. Number of Micro iterations      ....    24
   Max. Number of Macro iterations      .... Maxiter - #DIIS iter
   Number of Davidson start vectors     ....     2
   Converg. threshold    (grad. norm)   ....   5.000e-05
   Grad. Scal. Fac. for Micro threshold ....   0.100
   Minimum threshold for Micro iter.    ....   1.000e-02
   NR start threshold (gradient norm)   ....   1.000e-04
   Initial trust radius                 ....   0.400
   Minimum AH scaling param. (alpha)    ....   1.000
   Maximum AH scaling param. (alpha)    .... 1000.000
   Quad. conv. algorithm                .... NR
   White noise on init. David. guess    .... on
   Maximum white noise                  ....   0.010
   Pseudo random numbers                .... off
   Inactive MOs                         .... canonical
   Orbital update algorithm             .... Taylor
   Preconditioner                       .... Diag
   Full preconditioner red. dimension   ....   250
 SOSCF                  CNVSOSCF        .... on
   Start iteration      SOSCFMaxIt      ....   150
   Startup grad/error   SOSCFStart      ....  0.003300
   Hessian update       SOSCFHessUp     .... L-BFGS
 Level Shifting         CNVShift        .... on
   Level shift para.    LevelShift      ....    0.2500
   Turn off err/grad.   ShiftErr        ....    0.0010
 Zerner damping         CNVZerner       .... off
 Static damping         CNVDamp         .... on
   Fraction old density DampFac         ....    0.7000
   Max. Damping (<1)    DampMax         ....    0.9800
   Min. Damping (>=0)   DampMin         ....    0.0000
   Turn off err/grad.   DampErr         ....    0.1000

SCF Procedure:
 Maximum # iterations   MaxIter         ....   300
 SCF integral mode      SCFMode         .... Direct
   Integral package                     .... SHARK and LIBINT hybrid scheme
 Reset frequency        DirectResetFreq ....    20
 Integral Threshold     Thresh          ....  1.000e-10 Eh
 Primitive CutOff       TCut            ....  1.000e-11 Eh

Convergence Tolerance:
 Convergence Check Mode ConvCheckMode   .... Total+1el-Energy
 Convergence forced     ConvForced      .... 0
 Energy Change          TolE            ....  1.000e-06 Eh
 1-El. energy change                    ....  1.000e-03 Eh
 Orbital Gradient       TolG            ....  5.000e-05
 Orbital Rotation angle TolX            ....  5.000e-05
 DIIS Error             TolErr          ....  1.000e-06

------------------------------
INITIAL GUESS: MODEL POTENTIAL
------------------------------
Loading Hartree-Fock densities                     ... done
Calculating cut-offs                               ... done
Initializing the effective Hamiltonian             ... done
Setting up the integral package (SHARK)            ... done
Starting the Coulomb interaction                   ... done (   0.3 sec)
Making the grid                                    ... done (   1.0 sec)
Mapping shells                                     ... done
Starting the XC term evaluation                    ... done (   0.3 sec)
  promolecular density results
     # of electrons  =    115.992905317
     EX              =   -102.800500912
     EC              =     -4.054360586
     EX+EC           =   -106.854861498
Transforming the Hamiltonian                       ... done (   0.1 sec)
Diagonalizing the Hamiltonian                      ... done (   0.0 sec)
Back transforming the eigenvectors                 ... done (   0.0 sec)
Now organizing SCF variables                       ... done
                      ------------------
                      INITIAL GUESS DONE (   1.7 sec)
                      ------------------
             **** ENERGY FILE WAS UPDATED (sp_ts.en.tmp) ****
Finished Guess after   2.5 sec
Maximum memory used throughout the entire GUESS-calculation: 19.9 MB


           ************************************************************
           *        Program running with 8 parallel MPI-processes     *
           *              working on a common directory               *
           ************************************************************

-------------------------------------------------------------------------------------------
                                      ORCA LEAN-SCF
                              memory conserving SCF solver
-------------------------------------------------------------------------------------------

--------------------
CPCM SOLVATION MODEL
--------------------
CPCM parameters:
  Epsilon                                         ...       4.0000
  Refrac                                          ...       1.3300
  Rsolv                                           ...       1.3000
  Surface type                                    ... GAUSSIAN VDW
  Discretization scheme                           ... Constant charge density
    Threshold for H atoms                         ...       5.0000 (charges/Ang^2)
    Threshold for non-H atoms                     ...       5.0000 (charges/Ang^2)
  Epsilon function type                           ...         CPCM
Solvent:                                          ... CUSTOM
Radii:
  Scheme                                          ... Element-dependent radii
  Radius for C  used is    3.8550 Bohr (=   2.0400 Ang.)
  Radius for H  used is    2.4944 Bohr (=   1.3200 Ang.)
  Radius for O  used is    3.4469 Bohr (=   1.8240 Ang.)
Calculating surface                               ...        done! (  0.0s)
Cavity surface points                             ...         2089
Cavity Volume                                     ...    1622.6409
Cavity Surface-area                               ...     847.2730
Calculating surface distance matrix               ...        done! (  0.1s)
Performing Cholesky decomposition & store         ...        done! (  0.5s)
Overall time for CPCM initialization              ...                 0.6s

----------------------------------------D-I-I-S--------------------------------------------
Iteration    Energy (Eh)           Delta-E    RMSDP     MaxDP     DIISErr   Damp  Time(sec)
-------------------------------------------------------------------------------------------
               ***  Starting incremental Fock matrix formation  ***
    1    -835.6887923733561365     0.00e+00  4.50e-03  2.28e-01  3.00e-01  0.700   6.3
Warning: op=0 Small HOMO/LUMO gap (   0.075) - skipping pre-diagonalization
         Will do a full diagonalization
    2    -835.9718094148443015    -2.83e-01  3.09e-03  1.67e-01  1.31e-01  0.700   4.0
                               ***Turning on AO-DIIS***
    3    -836.0770746335185777    -1.05e-01  1.21e-03  4.61e-02  4.16e-02  0.700   3.9
    4    -836.1408759977166483    -6.38e-02  1.82e-03  3.54e-02  1.98e-02  0.000   4.2
    5    -836.2828296974435034    -1.42e-01  4.71e-04  2.57e-02  6.61e-03  0.000   4.0
                              *** Initializing SOSCF ***
---------------------------------------S-O-S-C-F--------------------------------------
Iteration    Energy (Eh)           Delta-E    RMSDP     MaxDP     MaxGrad    Time(sec)
--------------------------------------------------------------------------------------
    6    -836.2835448299331347    -7.15e-04  1.41e-04  6.06e-03  1.48e-03     3.8
               *** Restarting incremental Fock matrix formation ***
    7    -836.2835964606674679    -5.16e-05  1.09e-04  2.91e-03  3.52e-04     6.6
    8    -836.2835981246735173    -1.66e-06  4.82e-05  1.44e-03  4.57e-04     5.6
    9    -836.2836087689620399    -1.06e-05  4.07e-05  1.00e-03  1.61e-04     4.5
   10    -836.2836097235083344    -9.55e-07  1.46e-05  3.99e-04  1.01e-04     4.3
                 **** Energy Check signals convergence ****

               *****************************************************
               *                     SUCCESS                       *
               *           SCF CONVERGED AFTER  10 CYCLES          *
               *****************************************************

Recomputing exchange energy using gridx3       ... done (    8.342 sec)
Old exchange energy                            :    -20.873874348 Eh
New exchange energy                            :    -20.873920561 Eh
Exchange energy change after final integration :     -0.000046213 Eh
Total energy after final integration           :   -836.283655937 Eh
             **** ENERGY FILE WAS UPDATED (sp_ts.en.tmp) ****

----------------
TOTAL SCF ENERGY
----------------

Total Energy       :       -836.28365593681360 Eh          -22756.43519 eV

Components:
Nuclear Repulsion  :       1112.66765229964471 Eh           30277.22608 eV
Electronic Energy  :      -1948.72768433413307 Eh          -53027.57616 eV
One Electron Energy:      -3390.91302083162600 Eh          -92271.43429 eV
Two Electron Energy:       1442.18533649749293 Eh           39243.85813 eV
CPCM Dielectric    :         -0.22357768902000 Eh              -6.08386 eV

Virial components:
Potential Energy   :      -1665.69532529204935 Eh          -45325.87412 eV
Kinetic Energy     :        829.41166935523586 Eh           22569.43893 eV
Virial Ratio       :          2.00828537484518

DFT components:
N(Alpha)           :       58.999972704073 electrons
N(Beta)            :       58.999972704073 electrons
N(Total)           :      117.999945408146 electrons
E(X)               :      -83.108467732414 Eh       
E(C)               :       -4.844325911045 Eh       
E(XC)              :      -87.952793643458 Eh       

CPCM Solvation Model Properties:
Surface-charge          :          1.98341817758484
Corrected charge        :          2.00000000000000
Outlying charge corr.   :          0.00001318493263 Eh               0.00036 eV
Free-energy (cav+disp)  :  This term is not implemented in the current solvation scheme

---------------
SCF CONVERGENCE
---------------

  Last Energy change         ...    9.5455e-07  Tolerance :   1.0000e-06
  Last MAX-Density change    ...    3.9906e-04  Tolerance :   1.0000e-05
  Last RMS-Density change    ...    1.4564e-05  Tolerance :   1.0000e-06
  Last DIIS Error            ...    1.4814e-03  Tolerance :   1.0000e-06
  Last Orbital Gradient      ...    1.0087e-04  Tolerance :   5.0000e-05
  Last Orbital Rotation      ...    2.4315e-04  Tolerance :   5.0000e-05


----------------
ORBITAL ENERGIES
----------------

  NO   OCC          E(Eh)            E(eV) 
   0   2.0000     -19.071540      -518.9630 
   1   2.0000     -19.029580      -517.8212 
   2   2.0000     -18.982399      -516.5373 
   3   2.0000     -18.978096      -516.4202 
   4   2.0000     -18.968215      -516.1514 
   5   2.0000     -18.966685      -516.1097 
   6   2.0000     -10.178941      -276.9831 
   7   2.0000     -10.168978      -276.7120 
   8   2.0000     -10.160433      -276.4794 
   9   2.0000     -10.150422      -276.2070 
  10   2.0000     -10.137594      -275.8580 
  11   2.0000     -10.132424      -275.7173 
  12   2.0000     -10.120595      -275.3954 
  13   2.0000     -10.119767      -275.3728 
  14   2.0000     -10.109390      -275.0905 
  15   2.0000     -10.095713      -274.7183 
  16   2.0000      -0.945581       -25.7306 
  17   2.0000      -0.920529       -25.0489 
  18   2.0000      -0.917288       -24.9607 
  19   2.0000      -0.889272       -24.1983 
  20   2.0000      -0.828749       -22.5514 
  21   2.0000      -0.811978       -22.0950 
  22   2.0000      -0.765472       -20.8296 
  23   2.0000      -0.675945       -18.3934 
  24   2.0000      -0.662978       -18.0405 
  25   2.0000      -0.627203       -17.0671 
  26   2.0000      -0.553702       -15.0670 
  27   2.0000      -0.526796       -14.3349 
  28   2.0000      -0.494068       -13.4443 
  29   2.0000      -0.461016       -12.5449 
  30   2.0000      -0.452016       -12.3000 
  31   2.0000      -0.417986       -11.3740 
  32   2.0000      -0.394209       -10.7270 
  33   2.0000      -0.389444       -10.5973 
  34   2.0000      -0.364977        -9.9315 
  35   2.0000      -0.358674        -9.7600 
  36   2.0000      -0.354189        -9.6380 
  37   2.0000      -0.346972        -9.4416 
  38   2.0000      -0.340904        -9.2765 
  39   2.0000      -0.332459        -9.0467 
  40   2.0000      -0.311969        -8.4891 
  41   2.0000      -0.310335        -8.4446 
  42   2.0000      -0.306395        -8.3374 
  43   2.0000      -0.304047        -8.2735 
  44   2.0000      -0.290784        -7.9126 
  45   2.0000      -0.285526        -7.7695 
  46   2.0000      -0.273035        -7.4297 
  47   2.0000      -0.256678        -6.9846 
  48   2.0000      -0.239949        -6.5294 
  49   2.0000      -0.215118        -5.8537 
  50   2.0000      -0.197017        -5.3611 
  51   2.0000      -0.169914        -4.6236 
  52   2.0000      -0.160136        -4.3575 
  53   2.0000      -0.155640        -4.2352 
  54   2.0000      -0.147135        -4.0037 
  55   2.0000      -0.144702        -3.9375 
  56   2.0000      -0.137705        -3.7471 
  57   2.0000      -0.127024        -3.4565 
  58   2.0000      -0.121290        -3.3005 
  59   0.0000      -0.005364        -0.1460 
  60   0.0000       0.068366         1.8603 
  61   0.0000       0.092475         2.5164 
  62   0.0000       0.114813         3.1242 
  63   0.0000       0.133013         3.6195 
  64   0.0000       0.150841         4.1046 
  65   0.0000       0.168297         4.5796 
  66   0.0000       0.185681         5.0526 
  67   0.0000       0.205558         5.5935 
  68   0.0000       0.208553         5.6750 
  69   0.0000       0.215131         5.8540 
*Only the first 10 virtual orbitals were printed.

                    ********************************
                    * MULLIKEN POPULATION ANALYSIS *
                    ********************************

-----------------------
MULLIKEN ATOMIC CHARGES
-----------------------
   0 C :    0.037098
   1 H :   -0.020640
   2 H :   -0.015671
   3 C :   -0.027692
   4 C :    0.054458
   5 O :   -0.431829
   6 O :   -0.430453
   7 O :   -0.353990
   8 C :    0.039956
   9 H :   -0.015341
  10 C :    0.001452
  11 H :   -0.037435
  12 C :   -0.083933
  13 C :    0.040894
  14 H :   -0.033135
  15 C :   -0.080208
  16 H :   -0.018547
  17 C :    0.310136
  18 H :    0.001812
  19 O :   -0.357155
  20 H :    0.176320
  21 C :    0.086627
  22 O :   -0.427593
  23 O :   -0.415132
Sum of atomic charges:   -2.0000000

--------------------------------
MULLIKEN REDUCED ORBITAL CHARGES
--------------------------------
  0 C s       :     3.074475  s :     3.074475
      pz      :     0.995882  p :     2.865127
      px      :     0.994860
      py      :     0.874385
      dz2     :     0.001673  d :     0.023300
      dxz     :     0.004879
      dyz     :     0.001987
      dx2y2   :     0.006538
      dxy     :     0.008222

  1 H s       :     0.996098  s :     0.996098
      pz      :     0.005414  p :     0.024541
      px      :     0.006536
      py      :     0.012591

  2 H s       :     0.991551  s :     0.991551
      pz      :     0.006071  p :     0.024120
      px      :     0.006743
      py      :     0.011307

  3 C s       :     3.171216  s :     3.171216
      pz      :     0.926664  p :     2.775833
      px      :     0.911083
      py      :     0.938086
      dz2     :     0.007198  d :     0.080643
      dxz     :     0.012500
      dyz     :     0.010468
      dx2y2   :     0.028037
      dxy     :     0.022439

  4 C s       :     3.059423  s :     3.059423
      pz      :     0.864005  p :     2.749440
      px      :     0.926330
      py      :     0.959105
      dz2     :     0.009023  d :     0.136679
      dxz     :     0.027809
      dyz     :     0.011445
      dx2y2   :     0.042589
      dxy     :     0.045813

  5 O s       :     3.713702  s :     3.713702
      pz      :     1.529189  p :     4.704481
      px      :     1.645418
      py      :     1.529873
      dz2     :     0.001776  d :     0.013647
      dxz     :     0.001618
      dyz     :     0.002787
      dx2y2   :     0.002815
      dxy     :     0.004649

  6 O s       :     3.732878  s :     3.732878
      pz      :     1.561613  p :     4.683929
      px      :     1.343560
      py      :     1.778756
      dz2     :     0.001640  d :     0.013645
      dxz     :     0.003909
      dyz     :     0.000098
      dx2y2   :     0.005178
      dxy     :     0.002820

  7 O s       :     3.776561  s :     3.776561
      pz      :     1.431888  p :     4.563557
      px      :     1.653228
      py      :     1.478441
      dz2     :     0.002010  d :     0.013871
      dxz     :     0.002183
      dyz     :     0.003147
      dx2y2   :     0.002582
      dxy     :     0.003949

  8 C s       :     3.175726  s :     3.175726
      pz      :     0.851398  p :     2.748416
      px      :     0.966800
      py      :     0.930218
      dz2     :     0.004510  d :     0.035901
      dxz     :     0.008928
      dyz     :     0.006520
      dx2y2   :     0.005980
      dxy     :     0.009962

  9 H s       :     0.993283  s :     0.993283
      pz      :     0.007879  p :     0.022058
      px      :     0.006902
      py      :     0.007276

 10 C s       :     3.179109  s :     3.179109
      pz      :     0.969964  p :     2.784359
      px      :     0.921412
      py      :     0.892982
      dz2     :     0.004790  d :     0.035081
      dxz     :     0.008433
      dyz     :     0.005005
      dx2y2   :     0.007844
      dxy     :     0.009009

 11 H s       :     1.014281  s :     1.014281
      pz      :     0.007551  p :     0.023154
      px      :     0.006481
      py      :     0.009121

 12 C s       :     3.193022  s :     3.193022
      pz      :     0.927608  p :     2.850212
      px      :     1.013052
      py      :     0.909552
      dz2     :     0.007425  d :     0.040699
      dxz     :     0.009114
      dyz     :     0.007001
      dx2y2   :     0.008187
      dxy     :     0.008972

 13 C s       :     3.209100  s :     3.209100
      pz      :     0.873058  p :     2.715123
      px      :     0.871178
      py      :     0.970888
      dz2     :     0.004449  d :     0.034883
      dxz     :     0.010531
      dyz     :     0.004171
      dx2y2   :     0.006946
      dxy     :     0.008786

 14 H s       :     1.010151  s :     1.010151
      pz      :     0.009250  p :     0.022984
      px      :     0.007988
      py      :     0.005747

 15 C s       :     3.214147  s :     3.214147
      pz      :     0.965860  p :     2.832853
      px      :     0.933106
      py      :     0.933887
      dz2     :     0.003378  d :     0.033207
      dxz     :     0.011038
      dyz     :     0.004392
      dx2y2   :     0.006247
      dxy     :     0.008153

 16 H s       :     0.995815  s :     0.995815
      pz      :     0.008563  p :     0.022732
      px      :     0.005775
      py      :     0.008393

 17 C s       :     2.840510  s :     2.840510
      pz      :     0.951998  p :     2.780345
      px      :     0.894142
      py      :     0.934204
      dz2     :     0.008262  d :     0.069009
      dxz     :     0.017454
      dyz     :     0.014967
      dx2y2   :     0.011947
      dxy     :     0.016379

 18 H s       :     0.974416  s :     0.974416
      pz      :     0.008514  p :     0.023772
      px      :     0.003957
      py      :     0.011301

 19 O s       :     3.733756  s :     3.733756
      pz      :     1.532827  p :     4.611384
      px      :     1.336590
      py      :     1.741967
      dz2     :     0.001881  d :     0.012015
      dxz     :     0.005231
      dyz     :     0.002292
      dx2y2   :     0.001211
      dxy     :     0.001399

 20 H s       :     0.757364  s :     0.757364
      pz      :     0.023126  p :     0.066316
      px      :     0.024610
      py      :     0.018579

 21 C s       :     3.026478  s :     3.026478
      pz      :     0.909488  p :     2.745943
      px      :     0.959064
      py      :     0.877392
      dz2     :     0.044508  d :     0.140952
      dxz     :     0.040615
      dyz     :     0.032532
      dx2y2   :     0.012591
      dxy     :     0.010706

 22 O s       :     3.733621  s :     3.733621
      pz      :     1.511059  p :     4.679979
      px      :     1.644734
      py      :     1.524186
      dz2     :     0.002921  d :     0.013993
      dxz     :     0.004202
      dyz     :     0.003331
      dx2y2   :     0.001716
      dxy     :     0.001823

 23 O s       :     3.722226  s :     3.722226
      pz      :     1.386809  p :     4.678763
      px      :     1.707006
      py      :     1.584947
      dz2     :     0.005960  d :     0.014144
      dxz     :     0.003797
      dyz     :     0.003514
      dx2y2   :     0.000382
      dxy     :     0.000491



                     *******************************
                     * LOEWDIN POPULATION ANALYSIS *
                     *******************************

----------------------
LOEWDIN ATOMIC CHARGES
----------------------
   0 C :   -0.073583
   1 H :    0.005820
   2 H :    0.008876
   3 C :   -0.048480
   4 C :   -0.066793
   5 O :   -0.402313
   6 O :   -0.394868
   7 O :   -0.230033
   8 C :    0.064927
   9 H :    0.020896
  10 C :   -0.051119
  11 H :    0.015419
  12 C :   -0.012247
  13 C :   -0.021838
  14 H :    0.020615
  15 C :   -0.037654
  16 H :    0.020767
  17 C :    0.053166
  18 H :    0.019894
  19 O :   -0.165214
  20 H :    0.081216
  21 C :   -0.040712
  22 O :   -0.389529
  23 O :   -0.377215

-------------------------------
LOEWDIN REDUCED ORBITAL CHARGES
-------------------------------
  0 C s       :     2.909079  s :     2.909079
      pz      :     1.001277  p :     3.100562
      px      :     1.066098
      py      :     1.033187
      dz2     :     0.004683  d :     0.063942
      dxz     :     0.011682
      dyz     :     0.005025
      dx2y2   :     0.018480
      dxy     :     0.024073

  1 H s       :     0.918004  s :     0.918004
      pz      :     0.018910  p :     0.076175
      px      :     0.019516
      py      :     0.037749

  2 H s       :     0.918123  s :     0.918123
      pz      :     0.019787  p :     0.073001
      px      :     0.019886
      py      :     0.033327

  3 C s       :     2.899193  s :     2.899193
      pz      :     0.915920  p :     2.955466
      px      :     1.045454
      py      :     0.994092
      dz2     :     0.016762  d :     0.193821
      dxz     :     0.028297
      dyz     :     0.022367
      dx2y2   :     0.069961
      dxy     :     0.056434

  4 C s       :     2.873968  s :     2.873968
      pz      :     0.848902  p :     2.873753
      px      :     1.013373
      py      :     1.011478
      dz2     :     0.021195  d :     0.319072
      dxz     :     0.057791
      dyz     :     0.024183
      dx2y2   :     0.104089
      dxy     :     0.111813

  5 O s       :     3.571822  s :     3.571822
      pz      :     1.530515  p :     4.806015
      px      :     1.690231
      py      :     1.585269
      dz2     :     0.003302  d :     0.024477
      dxz     :     0.002515
      dyz     :     0.004241
      dx2y2   :     0.005012
      dxy     :     0.009407

  6 O s       :     3.567653  s :     3.567653
      pz      :     1.555457  p :     4.802531
      px      :     1.464286
      py      :     1.782788
      dz2     :     0.003610  d :     0.024685
      dxz     :     0.005190
      dyz     :     0.000129
      dx2y2   :     0.011055
      dxy     :     0.004701

  7 O s       :     3.568875  s :     3.568875
      pz      :     1.428316  p :     4.636417
      px      :     1.684232
      py      :     1.523869
      dz2     :     0.003013  d :     0.024741
      dxz     :     0.003510
      dyz     :     0.005537
      dx2y2   :     0.004807
      dxy     :     0.007874

  8 C s       :     2.906754  s :     2.906754
      pz      :     0.925235  p :     2.940162
      px      :     1.071564
      py      :     0.943363
      dz2     :     0.010069  d :     0.088157
      dxz     :     0.022576
      dyz     :     0.014628
      dx2y2   :     0.015982
      dxy     :     0.024901

  9 H s       :     0.910746  s :     0.910746
      pz      :     0.024162  p :     0.068358
      px      :     0.020622
      py      :     0.023574

 10 C s       :     2.858779  s :     2.858779
      pz      :     1.014347  p :     3.097329
      px      :     1.051492
      py      :     1.031490
      dz2     :     0.011674  d :     0.095012
      dxz     :     0.023279
      dyz     :     0.013079
      dx2y2   :     0.021933
      dxy     :     0.025046

 11 H s       :     0.913984  s :     0.913984
      pz      :     0.023187  p :     0.070597
      px      :     0.020150
      py      :     0.027261

 12 C s       :     2.909140  s :     2.909140
      pz      :     0.958566  p :     3.001682
      px      :     1.073455
      py      :     0.969661
      dz2     :     0.016547  d :     0.101424
      dxz     :     0.022844
      dyz     :     0.018520
      dx2y2   :     0.020265
      dxy     :     0.023248

 13 C s       :     2.868475  s :     2.868475
      pz      :     1.001379  p :     3.061158
      px      :     1.071671
      py      :     0.988109
      dz2     :     0.011687  d :     0.092204
      dxz     :     0.028202
      dyz     :     0.010029
      dx2y2   :     0.019711
      dxy     :     0.022575

 14 H s       :     0.910241  s :     0.910241
      pz      :     0.027410  p :     0.069144
      px      :     0.023463
      py      :     0.018271

 15 C s       :     2.878695  s :     2.878695
      pz      :     1.002920  p :     3.073324
      px      :     1.074039
      py      :     0.996365
      dz2     :     0.009339  d :     0.085635
      dxz     :     0.028468
      dyz     :     0.010188
      dx2y2   :     0.017298
      dxy     :     0.020342

 16 H s       :     0.910559  s :     0.910559
      pz      :     0.026461  p :     0.068674
      px      :     0.016838
      py      :     0.025375

 17 C s       :     2.837000  s :     2.837000
      pz      :     1.023516  p :     2.952363
      px      :     0.922879
      py      :     1.005968
      dz2     :     0.014942  d :     0.157470
      dxz     :     0.042617
      dyz     :     0.038314
      dx2y2   :     0.023877
      dxy     :     0.037721

 18 H s       :     0.902956  s :     0.902956
      pz      :     0.025843  p :     0.077150
      px      :     0.014079
      py      :     0.037228

 19 O s       :     3.457542  s :     3.457542
      pz      :     1.585192  p :     4.684824
      px      :     1.372484
      py      :     1.727148
      dz2     :     0.002417  d :     0.022847
      dxz     :     0.010887
      dyz     :     0.003389
      dx2y2   :     0.002809
      dxy     :     0.003345

 20 H s       :     0.740804  s :     0.740804
      pz      :     0.066921  p :     0.177980
      px      :     0.061560
      py      :     0.049498

 21 C s       :     2.850684  s :     2.850684
      pz      :     1.014167  p :     2.862623
      px      :     0.980735
      py      :     0.867721
      dz2     :     0.111565  d :     0.327405
      dxz     :     0.093213
      dyz     :     0.070384
      dx2y2   :     0.028888
      dxy     :     0.023356

 22 O s       :     3.568685  s :     3.568685
      pz      :     1.589801  p :     4.795859
      px      :     1.667402
      py      :     1.538656
      dz2     :     0.005084  d :     0.024985
      dxz     :     0.008287
      dyz     :     0.006012
      dx2y2   :     0.002291
      dxy     :     0.003311

 23 O s       :     3.568323  s :     3.568323
      pz      :     1.488117  p :     4.783668
      px      :     1.712055
      py      :     1.583497
      dz2     :     0.012074  d :     0.025223
      dxz     :     0.007135
      dyz     :     0.004820
      dx2y2   :     0.000609
      dxy     :     0.000585



                      *****************************
                      * MAYER POPULATION ANALYSIS *
                      *****************************

  NA   - Mulliken gross atomic population
  ZA   - Total nuclear charge
  QA   - Mulliken gross atomic charge
  VA   - Mayer's total valence
  BVA  - Mayer's bonded valence
  FA   - Mayer's free valence

  ATOM       NA         ZA         QA         VA         BVA        FA
  0 C      5.9629     6.0000     0.0371     3.8200     3.8200     0.0000
  1 H      1.0206     1.0000    -0.0206     1.0429     1.0429     0.0000
  2 H      1.0157     1.0000    -0.0157     1.0187     1.0187     0.0000
  3 C      6.0277     6.0000    -0.0277     4.0149     4.0149     0.0000
  4 C      5.9455     6.0000     0.0545     4.4705     4.4705     0.0000
  5 O      8.4318     8.0000    -0.4318     2.0643     2.0643     0.0000
  6 O      8.4305     8.0000    -0.4305     2.0444     2.0444     0.0000
  7 O      8.3540     8.0000    -0.3540     2.1106     2.1106     0.0000
  8 C      5.9600     6.0000     0.0400     3.9466     3.9466    -0.0000
  9 H      1.0153     1.0000    -0.0153     0.9957     0.9957    -0.0000
 10 C      5.9985     6.0000     0.0015     3.9488     3.9488     0.0000
 11 H      1.0374     1.0000    -0.0374     1.0242     1.0242     0.0000
 12 C      6.0839     6.0000    -0.0839     3.6629     3.6629     0.0000
 13 C      5.9591     6.0000     0.0409     3.8757     3.8757     0.0000
 14 H      1.0331     1.0000    -0.0331     1.0194     1.0194     0.0000
 15 C      6.0802     6.0000    -0.0802     3.8824     3.8824    -0.0000
 16 H      1.0185     1.0000    -0.0185     0.9903     0.9903    -0.0000
 17 C      5.6899     6.0000     0.3101     3.8074     3.8074    -0.0000
 18 H      0.9982     1.0000     0.0018     1.0924     1.0924     0.0000
 19 O      8.3572     8.0000    -0.3572     2.0341     2.0341    -0.0000
 20 H      0.8237     1.0000     0.1763     1.0114     1.0114    -0.0000
 21 C      5.9134     6.0000     0.0866     4.5303     4.5303    -0.0000
 22 O      8.4276     8.0000    -0.4276     2.0488     2.0488    -0.0000
 23 O      8.4151     8.0000    -0.4151     2.0824     2.0824     0.0000

  Mayer bond orders larger than 0.100000
B(  0-C ,  1-H ) :   0.9011 B(  0-C ,  2-H ) :   0.9299 B(  0-C ,  3-C ) :   1.5167 
B(  0-C ,  8-C ) :   0.1095 B(  0-C , 12-C ) :   0.2763 B(  3-C ,  4-C ) :   0.8235 
B(  3-C ,  7-O ) :   1.5566 B(  4-C ,  5-O ) :   1.8654 B(  4-C ,  6-O ) :   1.7799 
B(  5-O ,  6-O ) :   0.1178 B(  6-O , 18-H ) :   0.1267 B(  7-O ,  8-C ) :   0.3369 
B(  8-C ,  9-H ) :   0.9496 B(  8-C , 10-C ) :   1.4219 B(  8-C , 17-C ) :   0.9879 
B( 10-C , 11-H ) :   0.9651 B( 10-C , 12-C ) :   1.4046 B( 12-C , 13-C ) :   1.0493 
B( 12-C , 21-C ) :   0.8391 B( 13-C , 14-H ) :   0.9826 B( 13-C , 15-C ) :   1.7617 
B( 15-C , 16-H ) :   0.9722 B( 15-C , 17-C ) :   0.9846 B( 17-C , 18-H ) :   0.8407 
B( 17-C , 19-O ) :   0.9884 B( 19-O , 20-H ) :   0.9717 B( 21-C , 22-O ) :   1.8144 
B( 21-C , 23-O ) :   1.8672 B( 22-O , 23-O ) :   0.1164 

-------
TIMINGS
-------

Total SCF time: 0 days 0 hours 0 min 57 sec 

Total time                  ....      57.557 sec
Sum of individual times     ....      57.037 sec  ( 99.1%)

SCF preparation             ....       1.520 sec  (  2.6%)
Fock matrix formation       ....      52.791 sec  ( 91.7%)
  Startup                   ....       0.317 sec  (  0.6% of F)
  Split-RI-J                ....       4.827 sec  (  9.1% of F)
  Chain of spheres X        ....      33.131 sec  ( 62.8% of F)
  XC integration            ....       8.152 sec  ( 15.4% of F)
    XC Preparation          ....       0.000 sec  (  0.0% of XC)
    Basis function eval.    ....       1.747 sec  ( 21.4% of XC)
    Density eval.           ....       1.039 sec  ( 12.7% of XC)
    XC-Functional eval.     ....       0.292 sec  (  3.6% of XC)
    XC-Potential eval.      ....       1.126 sec  ( 13.8% of XC)
  CPCM terms                ....       5.293 sec  ( 10.0% of F)
Diagonalization             ....       0.000 sec  (  0.0%)
Density matrix formation    ....       0.640 sec  (  1.1%)
Total Energy calculation    ....       0.263 sec  (  0.5%)
Population analysis         ....       0.124 sec  (  0.2%)
Orbital Transformation      ....       0.177 sec  (  0.3%)
Orbital Orthonormalization  ....       0.000 sec  (  0.0%)
DIIS solution               ....       1.061 sec  (  1.8%)
SOSCF solution              ....       0.462 sec  (  0.8%)
Finished LeanSCF after  57.8 sec

Maximum memory used throughout the entire LEANSCF-calculation: 31.1 MB


-------------------------------------------------------------------------------
                          DFT DISPERSION CORRECTION                            
                                                                               
                              DFTD3 V3.1  Rev 1                                
                          USING Becke-Johnson damping                          
-------------------------------------------------------------------------------
The B3LYP functional is recognized
Active option DFTDOPT                   ...         4   

molecular C6(AA) [au] = 7100.131011 


            DFT-D V3
 parameters
 s6 scaling factor         :     1.0000 
 a1 scaling factor         :     0.3981 
 s8 scaling factor         :     1.9889 
 a2 scaling factor         :     4.4211 
 ad hoc parameters k1-k3   :    16.0000     1.3333    -4.0000 

 Edisp/kcal,au: -34.986892310433  -0.055755155937 
 E6   /kcal   : -16.354004946 
 E8   /kcal   : -18.632887364 
 % E8         :  53.256765988 

-------------------------   ----------------
Dispersion correction           -0.055755156
-------------------------   ----------------


-------------------------   --------------------
FINAL SINGLE POINT ENERGY      -836.339411092751
-------------------------   --------------------



           ************************************************************
           *        Program running with 8 parallel MPI-processes     *
           *              working on a common directory               *
           ************************************************************

------------------------------------------------------------------------------
                              ORCA PROPERTY CALCULATIONS
------------------------------------------------------------------------------

GBWName                                 ... sp_ts.gbw
Number of atoms                         ...     24
Number of basis functions               ...    264
Max core memory                         ...   3000 MB

Electric properties:
Dipole moment                           ... YES
Quadrupole moment                       ...  NO
Static polarizability (Dipole/Dipole)   ...  NO
Static polarizability (Dipole/Quad.)    ...  NO
Static polarizability (Quad./Quad.)     ...  NO
Static polarizability (Velocity)        ...  NO

Atomic electric properties:
Dipole moment                           ...  NO
Quadrupole moment                       ...  NO
Static polarizability                   ...  NO

Choice of electric origin               ... Center of mass
Position of electric origin             ...   111.015668    63.397199   105.152065

General magnetic properties:
Magnetizability                         ...  NO

EPR properties:
g-Tensor (aka g-matrix)                 ...  NO
Zero-Field splitting spin-orbit         ...  NO
Zero-field splitting spin-spin          ...  NO
Hyperfine couplings                     ...  NO (   0 nuclei)
Quadrupole couplings                    ...  NO (   0 nuclei)
Contact density                         ...  NO (   0 nuclei)

NMR properties:
Chemical shifts                         ...  NO (   0 nuclei)
Spin-rotation constants                 ...  NO (   0 nuclei)
Spin-spin couplings                     ...  NO (   0 nuclei,    0 pairs)

Choice of magnetic origin               ... GIAO
Position of magnetic origin             ...     0.000000     0.000000     0.000000

Properties with geometric perturbations:
SCF Hessian                             ...  NO
IR spectrum                             ...  NO
VCD spectrum                            ...  NO
X-ray spectroscopy properties:
SCF XES/XAS/RIXS spectra                ...  NO


-------------
DIPOLE MOMENT
-------------

Method             : SCF
Type of density    : Electron Density
Multiplicity       :   1
Irrep              :   0
Energy             :  -836.2836559368136022 Eh
Relativity type    : 
Basis              : AO
                                X                 Y                 Z
Electronic contribution:      0.865714492       0.222885566       0.543990116
Nuclear contribution   :     -3.867599351      -2.435318149      -0.908846294
                        -----------------------------------------
Total Dipole Moment    :     -3.001884860      -2.212432583      -0.364856178
                        -----------------------------------------
Magnitude (a.u.)       :      3.746904146
Magnitude (Debye)      :      9.523873464



--------------------
Rotational spectrum 
--------------------
 
Rotational constants in cm-1:             0.023887             0.015655             0.012306 
Rotational constants in MHz :           716.106113           469.327660           368.934164 

Dipole components along the rotational axes: 
x,y,z [a.u.] :     0.698445    -3.482867     1.192102 
x,y,z [Debye]:     1.775305    -8.852743     3.030082 

 

Dipole moment calculation done in   0.0 sec 

Maximum memory used throughout the entire PROP-calculation: 13.8 MB

--------------------------------
SUGGESTED CITATIONS FOR THIS RUN
--------------------------------

Below you find a list of papers that are relevant to this ORCA run
We neither can nor want to force you to cite these papers, but we appreciate if you do
You receive ORCA, which is the product of decades of hard work by many enthusiastic individuals, for free
The only thing we kindly ask in return is that you cite our papers,
We deeply appreciate it, if you show your appreciation for ORCA by not just citing the generic ORCA reference.

Please note that relegating all ORCA citations to the supporting information does *not* help us.
SI sections are not indexed - citations you put there will not count into any citation statistics
But we need these citations in order to attract the funding resources that allow us to do what we are doing

Therefore, if you are a happy ORCA user, please consider citing a few of the papers listed below in the main body of your paper

In addition to the list printed below, the program has created the file sp_ts.bibtex that contains the list in bibtex format
You can import this file easily into all common literature databanks and citation aid programs


List of essential papers. We consider these as the minimum necessary citations

  1. Neese,F.
     Software update: the ORCA program system, version 5.0
     WIRES Comput. Molec. Sci., 2022 12(1)e1606
     doi.org/10.1002/wcms.1606

List of papers to cite with high priority. The work reported in these papers was absolutely
necessary for this run to complete.
Our perspective: the developers of density functionals and basis sets usually get cited in chemistry papers
Good! But without the algorithms to do something with them, the functionals or basis sets would not do anything.
Hence, in our opinion, the algorithm design and method developments papers are equally worthy of getting cited

  1. Neese,F.
     An improvement of the resolution of the identity approximation for the formation of the Coulomb matrix
     J. Comp. Chem., 2003 24(14)1740-1747
     doi.org/10.1002/jcc.10318
  2. Neese,F.; Wennmohs,F.; Hansen,A.; Becker,U.
     Efficient, approximate and parallel Hartree-Fock and hybrid DFT calculations. A 'chain-of-spheres' algorithm for the Hartree-Fock exchange
     Chem. Phys., 2009 356(1-3)98-109
     doi.org/10.1016/j.chemphys.2008.10.036
  3. Garcia-Rates,M.; Neese,F.
     Effect of the Solute Cavity on the Solvation Energy and its Derivatives within the Framework of the Gaussian Charge Scheme
     J. Comput. Chem., 2020 41 922-939
     doi.org/10.1002/jcc.26139
  4. Helmich-Paris,B.; de Souza,B.; Neese,F.; Izsák,R.
     An improved chain of spheres for exchange algorithm
     J. Chem. Phys., 2021 155 104109
     doi.org/doi: 10.1063/5.0058766.
  5. Neese,F.
     The SHARK Integral Generation and Digestion System
     J. Comp. Chem., 2022  1-16
     doi.org/10.1002/jcc.26942
  6. Grimme,S.; Antony,J.; Ehrlich,S.; Krieg,H.
     A consistent and accurate ab initio parametrization of density functional dispersion correction (DFT-D) for the 94 elements H-Pu
     J. Chem. Phys., 2010 132 154104
     doi.org/10.1063/1.3382344
  7. Grimme,S.; Ehrlich,S.; Goerigk,L.
     Effect of the damping function in dispersion corrected density functional theory
     J. Comput. Chem., 2011 32(7)1456-1465
     doi.org/10.1002/jcc.21759

List of suggested additional citations. These are papers that are important in the 'surrounding' of 
of this run, or papers that preceded the highly important papers. If you like your results we are grateful for a citation.

  1. Izsak,R.; Neese,F.
     An overlap fitted chain of spheres exchange method
     J. Chem. Phys., 2011 135 144105
     doi.org/10.1063/1.3646921
  2. Izsak,R.; Hansen,A.; Neese,F.
     The resolution of identity and chain of spheres approximations for the LPNO-CCSD singles Fock term
     Molec. Phys., 2012 110 2413-2417
     doi.org/10.1080/00268976.2012.687466
  3. Neese,F.
     The ORCA program system
     WIRES Comput. Molec. Sci., 2012 2(1)73-78
     doi.org/10.1002/wcms.81
  4. Izsak,R.; Neese,F.; Klopper,W.
     Robust fitting techniques in the chain of spheres approximation to the Fock exchange: The role of the complementary space
     J. Chem. Phys., 2013 139 
     doi.org/10.1063/1.4819264
  5. Neese,F.
     Software update: the ORCA program system, version 4.0
     WIRES Comput. Molec. Sci., 2018 8(1)1-6
     doi.org/10.1002/wcms.1327
  6. Neese,F.; Wennmohs,F.; Becker,U.; Riplinger,C.
     The ORCA quantum chemistry program package
     J. Chem. Phys., 2020 152 Art. No. L224108
     doi.org/10.1063/5.0004608

List of optional additional citations

  1. Neese,F.
     Approximate second-order SCF convergence for spin unrestricted wavefunctions
     Chem. Phys. Lett., 2000 325(1-3)93-98
     doi.org/10.1016/s0009-2614(00)00662-x

Timings for individual modules:

Sum of individual times          ...       71.975 sec (=   1.200 min)
Startup calculation              ...        7.771 sec (=   0.130 min)  10.8 %
SCF iterations                   ...       62.397 sec (=   1.040 min)  86.7 %
Property calculations            ...        1.807 sec (=   0.030 min)   2.5 %
                             ****ORCA TERMINATED NORMALLY****
TOTAL RUN TIME: 0 days 0 hours 1 minutes 18 seconds 453 msec
