
                                 *****************
                                 * O   R   C   A *
                                 *****************

                                            #,                                       
                                            ###                                      
                                            ####                                     
                                            #####                                    
                                            ######                                   
                                           ########,                                 
                                     ,,################,,,,,                         
                               ,,#################################,,                 
                          ,,##########################################,,             
                       ,#########################################, ''#####,          
                    ,#############################################,,   '####,        
                  ,##################################################,,,,####,       
                ,###########''''           ''''###############################       
              ,#####''   ,,,,##########,,,,          '''####'''          '####       
            ,##' ,,,,###########################,,,                        '##       
           ' ,,###''''                  '''############,,,                           
         ,,##''                                '''############,,,,        ,,,,,,###''
      ,#''                                            '''#######################'''  
     '                                                          ''''####''''         
             ,#######,   #######,   ,#######,      ##                                
            ,#'     '#,  ##    ##  ,#'     '#,    #''#        ,####,   ,####,        
            ##       ##  ##   ,#'  ##            #'  '#       #'       #'  '#        
            ##       ##  #######   ##           ,######,      #####,   #    #        
            '#,     ,#'  ##    ##  '#,     ,#' ,#      #,     #,   #   #,  ,#        
             '#######'   ##     ##  '#######'  #'      '#     '####' # '####'        



                #########################################################
                #                        -***-                          #
                #          Department of theory and spectroscopy        #
                #                                                       #
                #                      Frank Neese                      #
                #                                                       #
                #     Directorship, Architecture, Infrastructure        #
                #                    SHARK, DRIVERS                     #
                #        Core code/Algorithms in most modules           #
                #                                                       #
                #        Max Planck Institute fuer Kohlenforschung      #
                #                Kaiser Wilhelm Platz 1                 #
                #                 D-45470 Muelheim/Ruhr                 #
                #                      Germany                          #
                #                                                       #
                #                  All rights reserved                  #
                #                        -***-                          #
                #########################################################


                         Program Version 6.0.1  -  RELEASE   -


 With contributions from (in alphabetic order):
[Max-Planck-Institut fuer Kohlenforschung]                               
  Daniel Aravena         : Magnetic Suceptibility                        
  Michael Atanasov       : Ab Initio Ligand Field Theory (pilot matlab implementation)
  Alexander A. Auer      : GIAO ZORA, VPT2 properties, NMR spectrum      
  Ute Becker             : All parallelization in ORCA, NUMFREQ, NUMCALC 
  Giovanni Bistoni       : ED, misc. LED, open-shell LED, HFLD           
  Martin Brehm           : Molecular dynamics                            
  Dmytro Bykov           : pre 5.0 version of the SCF Hessian            
  Marcos Casanova-Páez   : Triplet and SCS-CIS(D). UHF-(DLPNO)-IP/EA/STEOM-CCSD. UHF-CVS-IP/STEOM-CCSD   
  Vijay G. Chilkuri      : MRCI spin determinant printing, contributions to CSF-ICE 
  Pauline Colinet        : FMM embedding                                 
  Dipayan Datta          : RHF DLPNO-CCSD density                        
  Achintya Kumar Dutta   : EOM-CC, STEOM-CC                              
  Nicolas Foglia         : Exact transition moments, OPA infrastructure, MCD improvements    
  Dmitry Ganyushin       : Spin-Orbit,Spin-Spin,Magnetic field MRCI      
  Miquel Garcia-Rates    : C-PCM and meta-GGA Hessian, CCSD/C-PCM, Gaussian charge scheme 
  Tiago L. C. Gouveia    : GS-ROHF, GS-ROCIS                             
  Yang Guo               : DLPNO-NEVPT2, F12-NEVPT2, CIM, IAO-localization        
  Andreas Hansen         : Spin unrestricted coupled pair/coupled cluster methods 
  Ingolf Harden          : AUTO-CI MPn and infrastructure                
  Benjamin Helmich-Paris : MC-RPA, TRAH-(SCF,CASSCF), AVAS, COSX integrals, SCF dyn. polar. 
  Lee Huntington         : MR-EOM, pCC                                   
  Robert Izsak           : Overlap fitted RIJCOSX, COSX-SCS-MP3, EOM     
  Riya Kayal             : Wick's Theorem for AUTO-CI, AUTO-CI UHF-CCSDT 
  Emily Kempfer          : AUTO-CI, RHF CISDT and CCSDT                  
  Christian Kollmar      : KDIIS, OOCD, Brueckner-CCSD(T), CCSD density, CASPT2, CASPT2-K, improved NEVPT2 
  Axel Koslowski         : Symmetry handling                             
  Simone Kossmann        : meta-GGA functionals, TD-DFT gradient, OOMP2, (MP2 Hessian; deprecated post 5.0) 
  Lucas Lang             : DCDCAS                                        
  Marvin Lechner         : AUTO-CI (C++ implementation), FIC-MRCC        
  Spencer Leger          : CASSCF response                               
  Dagmar Lenk            : GEPOL surface, SMD, ORCA-2-JSON               
  Dimitrios Liakos       : Extrapolation schemes; Compound Job, initial MDCI parallelization 
  Dimitrios Manganas     : Further ROCIS development; embedding schemes. LFT, Crystal Embedding 
  Dimitrios Pantazis     : SARC Basis sets                               
  Anastasios Papadopoulos: AUTO-CI, single reference methods and gradients 
  Taras Petrenko         : pre 6.0 DFT Hessian and TD-DFT gradient, (ASA, deprecated), ECA, 1-Electron XAS/XES, NRVS 
  Peter Pinski           : DLPNO-MP2, DLPNO-MP2 Gradient                 
  Christoph Reimann      : Effective Core Potentials                     
  Marius Retegan         : Local ZFS, SOC                                
  Christoph Riplinger    : Optimizer, TS searches, QM/MM, DLPNO-CCSD(T), (RO)-DLPNO pert. Triples 
  Michael Roemelt        : Original ROCIS implementation                 
  Masaaki Saitow         : Open-shell DLPNO-CCSD energy and density      
  Barbara Sandhoefer     : DKH picture change effects                    
  Kantharuban Sivalingam : CASSCF convergence/infrastructure, NEVPT2 and variants, FIC-MRCI 
  Bernardo de Souza      : ESD, SOC TD-DFT                               
  Georgi L. Stoychev     : AutoAux, RI-MP2 NMR, DLPNO-MP2 response, X2C  
  Van Anh Tran           : RI-MP2 g-tensors                              
  Willem Van den Heuvel  : Paramagnetic NMR                              
  Zikuan Wang            : NOTCH, Electric field optimization            
  Frank Wennmohs         : Technical directorship and infrastructure     
  Hang Xu                : AUTO-CI-Response properties                   
                                                                         
[FACCTs GmbH]                                                            
  Markus Bursch, Miquel Garcia-Rates, Christoph Riplinger, Bernardo de Souza, Georgi L. Stoychev 
                                                                 
  APM, Basis sets (HGBS, AHGBS, def-TZVP (Ac-Lr), def2-XVPD (La-Lu)), CI-OPT, improved COSX, DLPNO-Multilevel,           
  DOCKER, DRACO, updates on ESD, GOAT, IRC, LR-CPCM, MBIS, meta-GGA TD-DFT gradient, ML-optimized integration grids, 
  MM, NACMEs, nearIR, NEB, NEB-TS, NL-DFT gradient (VV10), 2- and 3-layer-ONIOM, interface openCOSMO-RS, QMMM,   
  Crystal-QMMM, SF, symmetry and pop. for TD-DFT, r2SCAN hybrids, SOLVATOR                                   
                                                                         
[Other institutions]                                                     
  V. Asgeirsson          : NEB                                           
  Christoph Bannwarth    : sTDA-DFT, sTD-DFT, PBEh-3c, B97-3c, D3        
  Sebastian Ehlert       : rSCAN, r2SCAN, r2SCAN-3c, D4, dhf basis sets  
  Marvin Friede          : D4 for Fr, Ra, Ac-Lr                          
  Lars Goerigk           : TD-DFT with DH, B97 family of functionals     
  Stefan Grimme          : VdW corrections, initial TS optimization, DFT functionals, gCP, sTDA/sTD-DF 
  Waldemar Hujo          : DFT-NL                                        
  H. Jonsson             : NEB                                           
  Holger Kruse           : gCP                                           
  Marcel Mueller         : wB97X-3c, vDZP basis set                      
  Hagen Neugebauer       : wr2SCAN                                       
  Tobias Risthaus        : range-separated hybrid DFT                    
  Lukas Wittmann         : regularized MP2, r2SCAN double-hybrids, wr2SCAN        
                                                                         
We gratefully acknowledge several colleagues who have allowed us to      
interface, adapt or use parts of their codes:                            
  Ed Valeev, F. Pavosevic, A. Kumar             : LibInt (2-el integral package), F12 methods 
  Garnet Chan, S. Sharma, J. Yang, R. Olivares  : DMRG                   
  Ulf Ekstrom                                   : XCFun DFT Library      
  Mihaly Kallay                                 : mrcc  (arbitrary order and MRCC methods)
  Frank Weinhold                                : gennbo (NPA and NBO analysis)           
  Simon Mueller                                 : openCOSMO-RS                            
  Christopher J. Cramer and Donald G. Truhlar   : smd solvation model                     
  S Lehtola, MJT Oliveira, MAL Marques          : LibXC Library                           
  Liviu Ungur et al                             : ANISO software                          


 Your calculation uses the libint2 library for the computation of 2-el integrals
 For citations please refer to: http://libint.valeyev.net

 Your ORCA version has been built with support for libXC version: 6.2.2
 For citations please refer to: https://libxc.gitlab.io

 This ORCA versions uses:
   CBLAS   interface :  Fast vector & matrix operations
   LAPACKE interface :  Fast linear algebra routines
   SCALAPACK package :  Parallel linear algebra routines
   Shared memory     :  Shared parallel matrices
   BLAS/LAPACK       :  OpenBLAS 0.3.27  USE64BITINT DYNAMIC_ARCH NO_AFFINITY SkylakeX SINGLE_THREADED
        Core in use  :  SkylakeX
   Copyright (c) 2011-2014, The OpenBLAS Project


NOTE: MaxCore=3000 MB was set to SCF,MP2,MDCI,CIPSI,MRCI and CIS
      => If you want to overwrite this, your respective input block should be placed after the MaxCore statement


***************************************
The coordinates will be read from file: reactant_reduced.pdb
***************************************


Your calculation utilizes the atom-pairwise dispersion correction
with the Becke-Johnson damping scheme (D3BJ)


================================================================================

----- Orbital basis set information -----
Your calculation utilizes the basis: def2-SVP
   F. Weigend and R. Ahlrichs, Phys. Chem. Chem. Phys. 7, 3297 (2005).

----- AuxJ basis set information -----
Your calculation utilizes the auxiliary basis: def2/J
   F. Weigend, Phys. Chem. Chem. Phys. 8, 1057 (2006).

================================================================================
                                        WARNINGS
                       Please study these warnings very carefully!
================================================================================

WARNING: Gradients needed for Numerical Frequencies
  ===> : Setting RunTyp to EnGrad

WARNING: The environment variable RSH_COMMAND is not set!
  ===> : All Displacements for the Numerical Hessian or Gradient calculation
         will be started on localhost

================================================================================
                                       INPUT FILE
================================================================================
NAME = reactant_freq.inp
|  1> ! QMMM B3LYP D3BJ def2-SVP def2/J RIJCOSX NumFreq TightSCF
|  2> %maxcore 3000
|  3> %pal nprocs 8 end
|  4> %scf MaxIter 250 end
|  5> %qmmm
|  6>  QMAtoms {6207:6230} end
|  7>  ActiveAtoms {1006 1007 1008 1009 1010 1011 1012 1013 1014 1015 1016 1017 1018 1019 1020 1021 1022 1023 2170 2171 2172 2173 2174 2175 2176 2177 2178 2179 2180 2181 2182 2183 2184 2185 2186 2187 3310 3311 3312 3313 3314 3315 3316 3317 3318 3491 3492 3493 3494 3495 3496 3497 3498 3499 3500 3501 3502 3503 3504 3505 3506 3507 3508 3790 3791 3792 3793 3794 3795 3796 3797 3798 3799 3800 3801 3802 3803 3804 6207 6208 6209 6210 6211 6212 6213 6214 6215 6216 6217 6218 6219 6220 6221 6222 6223 6224 6225 6226 6227 6228 6229 6230} end
|  8>  ORCAFFFilename "complex_solvated.ORCAFF.prms"
|  9> end
| 10> *pdbfile -2 1 reactant_reduced.pdb
| 11> 
| 12>                          ****END OF INPUT****
================================================================================

------------------------------------------------------------------------------

                             **************************
                             *           QMMM         *
                             **************************


------------------------------------------------------------------------------




Multiscale model                       ... QM/MM
Coupling Scheme                        ... additive
Embedding Scheme                       ... electrostatic
PrintLevel                             ... 1
Charge alteration scheme               ... Charge shifting
Scaling factor for CS scheme           ... 0.06
Gradient projection scheme             ... Lever rule
Point charges in QM calc. from MM atoms... 55656
              from charge shift scheme ... 0
Printing trajectories, xyz and allxyz files:
        QMMMRegion                     ... YES
        activeRegion                   ... YES
        activeRegionExt                ... NO
        qmRegion                       ... YES
Parameter files:
        ORCA Forcefield Filename       ... complex_solvated.ORCAFF.prms
        QM-LA bond distances Filename  ... reactant_freq.H_DIST.prms.tmp
Forcefield type                        ... AMBER
Size of different subsystems (in atoms):
Size of QMMM System                    ... 55680
Size of MM Subsystem                   ... 55656
Size of QM Subsystem                   ... 24
Number of link atoms                   ... 0
Size of QM Subsystem plus link atoms   ... 24
Size of region for optimizer           ... 180
        optimized atoms = activeRegion ... 102
        fixed atoms (distance cutoff)  ... 78 ( 0.0)
Composition of different systems (atoms start counting at 0):
QM Subsystem                           ... 6207 6208 6209 6210 6211 6212 6213 6214 6215 6216 
                                           6217 6218 6219 6220 6221 6222 6223 6224 6225 6226 
                                           6227 6228 6229 6230 
Active atoms                           ... 1006 1007 1008 1009 1010 1011 1012 1013 1014 1015 
                                           1016 1017 1018 1019 1020 1021 1022 1023 2170 2171 
                                           2172 2173 2174 2175 2176 2177 2178 2179 2180 2181 
                                           2182 2183 2184 2185 2186 2187 3310 3311 3312 3313 
                                           3314 3315 3316 3317 3318 3491 3492 3493 3494 3495 
                                           3496 3497 3498 3499 3500 3501 3502 3503 3504 3505 
                                           3506 3507 3508 3790 3791 3792 3793 3794 3795 3796 
                                           3797 3798 3799 3800 3801 3802 3803 3804 6207 6208 
                                           6209 6210 6211 6212 6213 6214 6215 6216 6217 6218 
                                           6219 6220 6221 6222 6223 6224 6225 6226 6227 6228 
                                           6229 6230 
Fixed atoms used in optimizer          ... 926 948 949 951 957 1002 1003 1004 1005 1024 
                                           1025 1105 1185 1191 1201 1207 1208 2166 2167 2168 
                                           2169 2188 2190 2191 2195 2196 2203 2204 2853 2854 
                                           2855 2871 3306 3307 3308 3309 3319 3321 3322 3329 
                                           3337 3487 3488 3489 3490 3509 3510 3526 3530 3539 
                                           3784 3786 3787 3788 3789 3805 3872 3910 3911 3936 
                                           7137 7138 7500 11454 11456 11928 11930 15171 20628 20670 
                                           20671 22539 22540 31673 47610 47611 47612 48879 
Constrain bonds and angle of MM waters ... NO

                     *******************************
                     * Energy+Gradient Calculation *
                     *******************************

                    ************************************                      
                    *          QM/MM SP Energy         *                      
                    ************************************                      




           ************************************************************
           *        Program running with 8 parallel MPI-processes     *
           *              working on a common directory               *
           ************************************************************

----------------------------------------------------------------------------
                                     MM                                         
------------------------------------------------------------------------------


Force Field is read from file          ... complex_solvated.ORCAFF.prms
Forcefield type                        ... AMBER
PrintLevel                             ... 1


Do energy and gradient calculation
Coulomb interaction settings:
   Dielectricity constant              ...        1.000
   1-4 scaling factor                  ...        0.833
   Force Shifting (Coulomb Interaction)... YES
       Coulomb CutOff                  ...       12.000 Ang.
   Force Switching (LJ Interaction)    ... YES
       LJ Inner CutOff                 ...       10.000 Ang.
       LJ Outer CutOff                 ...       12.000 Ang.
Do compute NB interaction for all atoms

-------------------------   ----------
MM Energy contributions:

---------------------------------- Bond Terms ----------------------------------
Bonds                         1.77480645

--------------------------------- Angle Terms ----------------------------------
Angles                        4.29333849

--------------------------- Angle Urey-Bradley Terms ---------------------------
Angles UB                     0.00000000

-------------------------------- Dihedral Terms --------------------------------
Dihedrals                     7.70317478

-------------------------------- Improper Terms --------------------------------
Impropers                     0.00000000

-------------------------- LJ and Coulomb interaction --------------------------

TOTAL TIME LJ + Coul           :....................         4.3206220000 seconds

LJ interaction                34.18488570
Coulomb interaction           -287.10611883
-------------------------   ----------

-------------------------   --------------------
FINAL SINGLE POINT ENERGY (MM)     -239.149913407882
-------------------------   --------------------


Printout of MM Cartesian gradient is suppressed (too many atoms).
Increase Printlevel to at least 2 to see Cartesian gradient.
Total MM SPGRAD time        ....       5.598 sec
------------------------------------------------------------------------------
                                     QM                                       
------------------------------------------------------------------------------
---------------------------------
CARTESIAN COORDINATES (ANGSTROEM)
---------------------------------
  C     60.112000   34.384000   57.210000
  H     60.607000   33.430000   57.385000
  H     60.725000   35.272000   57.059000
  C     58.781000   34.504000   57.152000
  C     58.092000   35.834000   56.893000
  O     58.812000   36.818000   56.579000
  O     56.840000   35.849000   57.010000
  O     57.935000   33.426000   57.346000
  C     57.677000   32.538000   56.201000
  H     57.019000   31.764000   56.624000
  C     58.986000   31.962000   55.793000
  H     59.464000   31.243000   56.460000
  C     59.683000   32.483000   54.768000
  C     59.064000   33.484000   53.893000
  H     59.702000   33.905000   53.111000
  C     57.781000   33.866000   54.032000
  H     57.332000   34.602000   53.357000
  C     56.890000   33.271000   55.086000
  H     56.347000   34.091000   55.586000
  O     55.963000   32.398000   54.435000
  H     55.311000   32.110000   55.093000
  C     61.123000   32.062000   54.534000
  O     61.785000   31.702000   55.543000
  O     61.541000   32.107000   53.353000

----------------------------
CARTESIAN COORDINATES (A.U.)
----------------------------
  NO LB      ZA    FRAG     MASS         X           Y           Z
   0 C     6.0000    0    12.011  113.595217   64.976343  108.111232
   1 H     1.0000    0     1.008  114.530632   63.173545  108.441934
   2 H     1.0000    0     1.008  114.753619   66.654420  107.825883
   3 C     6.0000    0    12.011  111.079992   65.203111  108.001628
   4 C     6.0000    0    12.011  109.777971   67.716446  107.512189
   5 O     8.0000    0    15.999  111.138573   69.575937  106.918815
   6 O     8.0000    0    15.999  107.412033   67.744792  107.733287
   7 O     8.0000    0    15.999  109.481284   63.165986  108.368235
   8 C     6.0000    0    12.011  108.993734   61.487909  106.204498
   9 H     1.0000    0     1.008  107.750294   60.025261  107.003853
  10 C     6.0000    0    12.011  111.467386   60.399427  105.433490
  11 H     1.0000    0     1.008  112.370675   59.040714  106.693938
  12 C     6.0000    0    12.011  112.784525   61.383974  103.496521
  13 C     6.0000    0    12.011  111.614784   63.275590  101.843011
  14 H     1.0000    0     1.008  112.820430   64.071165  100.365245
  15 C     6.0000    0    12.011  109.190266   63.997465  102.105682
  16 H     1.0000    0     1.008  108.341779   65.388304  100.830117
  17 C     6.0000    0    12.011  107.506520   62.873078  104.097454
  18 H     1.0000    0     1.008  106.480398   64.422654  105.042317
  19 O     8.0000    0    15.999  105.754744   61.223347  102.867242
  20 H     1.0000    0     1.008  104.522642   60.679106  104.110682
  21 C     6.0000    0    12.011  115.505730   60.588399  103.054325
  22 O     8.0000    0    15.999  116.756729   59.908098  104.961059
  23 O     8.0000    0    15.999  116.295636   60.673437  100.822558

--------------------------------
INTERNAL COORDINATES (ANGSTROEM)
--------------------------------
 C      0   0   0     0.000000000000     0.00000000     0.00000000
 H      1   0   0     1.088928831467     0.00000000     0.00000000
 H      1   2   0     1.089547612544   118.72123868     0.00000000
 C      1   2   3     1.337656532896   122.53907014   178.90271415
 C      4   1   2     1.520099338859   122.47166138   180.66314007
 O      5   4   1     1.259067909209   117.84551905     7.92035401
 O      5   4   1     1.257544432615   116.47744978   187.72858513
 O      4   1   2     1.383992774548   122.15964686     1.74111047
 C      8   4   1     1.471778855671   117.90831106   277.30368295
 H      9   8   4     1.100440366399   103.30550100   178.12439930
 C      9   8   4     1.487185597025   107.02683766    60.82737499
 H     11   9   8     1.091024289372   118.23887727    69.62031917
 C     11   9   8     1.344572422743   121.01979340   261.75537433
 C     13  11   9     1.466556170080   120.03380897   349.76334910
 H     14  13  11     1.093530520836   116.30737792   176.92277931
 C     14  13  11     1.345858090588   122.30830776   356.62396250
 H     16  14  13     1.094952967026   121.20012815   181.10957512
 C     16  14  13     1.502937789797   121.68255477   359.01873295
 H     18  16  14     1.103290079716   108.38220230   134.03339304
 O     18  16  14     1.430125518967   107.86103451   253.01856138
 H     20  18  16     0.970057730241   107.94656828   187.76684831
 C     13  11   9     1.518419243819   120.10948278   168.27049738
 O     22  13  11     1.259335142049   117.02064818   331.45501028
 O     22  13  11     1.253598819400   116.83672168   151.51649694

---------------------------
INTERNAL COORDINATES (A.U.)
---------------------------
 C      0   0   0     0.000000000000     0.00000000     0.00000000
 H      1   0   0     2.057777270803     0.00000000     0.00000000
 H      1   2   0     2.058946597576   118.72123868     0.00000000
 C      1   2   3     2.527804508425   122.53907014   178.90271415
 C      4   1   2     2.872571446799   122.47166138   180.66314007
 O      5   4   1     2.379293532414   117.84551905     7.92035401
 O      5   4   1     2.376414578879   116.47744978   187.72858513
 O      4   1   2     2.615367315221   122.15964686     1.74111047
 C      8   4   1     2.781258966914   117.90831106   277.30368295
 H      9   8   4     2.079530919206   103.30550100   178.12439930
 C      9   8   4     2.810373488690   107.02683766    60.82737499
 H     11   9   8     2.061737112369   118.23887727    69.62031917
 C     11   9   8     2.540873646207   121.01979340   261.75537433
 C     13  11   9     2.771389521464   120.03380897   349.76334910
 H     14  13  11     2.066473203464   116.30737792   176.92277931
 C     14  13  11     2.543303206333   122.30830776   356.62396250
 H     16  14  13     2.069161237204   121.20012815   181.10957512
 C     16  14  13     2.840140819037   121.68255477   359.01873295
 H     18  16  14     2.084916096936   108.38220230   134.03339304
 O     18  16  14     2.702545567979   107.86103451   253.01856138
 H     20  18  16     1.833143444248   107.94656828   187.76684831
 C     13  11   9     2.869396527294   120.10948278   168.27049738
 O     22  13  11     2.379798529296   117.02064818   331.45501028
 O     22  13  11     2.368958450472   116.83672168   151.51649694

---------------------
BASIS SET INFORMATION
---------------------
There are 3 groups of distinct atoms

 Group   1 Type C   : 7s4p1d contracted to 3s2p1d pattern {511/31/1}
 Group   2 Type H   : 4s1p contracted to 2s1p pattern {31/1}
 Group   3 Type O   : 7s4p1d contracted to 3s2p1d pattern {511/31/1}

Atom   0C    basis set group =>   1
Atom   1H    basis set group =>   2
Atom   2H    basis set group =>   2
Atom   3C    basis set group =>   1
Atom   4C    basis set group =>   1
Atom   5O    basis set group =>   3
Atom   6O    basis set group =>   3
Atom   7O    basis set group =>   3
Atom   8C    basis set group =>   1
Atom   9H    basis set group =>   2
Atom  10C    basis set group =>   1
Atom  11H    basis set group =>   2
Atom  12C    basis set group =>   1
Atom  13C    basis set group =>   1
Atom  14H    basis set group =>   2
Atom  15C    basis set group =>   1
Atom  16H    basis set group =>   2
Atom  17C    basis set group =>   1
Atom  18H    basis set group =>   2
Atom  19O    basis set group =>   3
Atom  20H    basis set group =>   2
Atom  21C    basis set group =>   1
Atom  22O    basis set group =>   3
Atom  23O    basis set group =>   3
---------------------------------
AUXILIARY/J BASIS SET INFORMATION
---------------------------------
There are 3 groups of distinct atoms

 Group   1 Type C   : 12s5p4d2f1g contracted to 6s4p3d1f1g pattern {711111/2111/211/2/1}
 Group   2 Type H   : 5s2p1d contracted to 3s1p1d pattern {311/2/1}
 Group   3 Type O   : 12s5p4d2f1g contracted to 6s4p3d1f1g pattern {711111/2111/211/2/1}

Atom   0C    basis set group =>   1
Atom   1H    basis set group =>   2
Atom   2H    basis set group =>   2
Atom   3C    basis set group =>   1
Atom   4C    basis set group =>   1
Atom   5O    basis set group =>   3
Atom   6O    basis set group =>   3
Atom   7O    basis set group =>   3
Atom   8C    basis set group =>   1
Atom   9H    basis set group =>   2
Atom  10C    basis set group =>   1
Atom  11H    basis set group =>   2
Atom  12C    basis set group =>   1
Atom  13C    basis set group =>   1
Atom  14H    basis set group =>   2
Atom  15C    basis set group =>   1
Atom  16H    basis set group =>   2
Atom  17C    basis set group =>   1
Atom  18H    basis set group =>   2
Atom  19O    basis set group =>   3
Atom  20H    basis set group =>   2
Atom  21C    basis set group =>   1
Atom  22O    basis set group =>   3
Atom  23O    basis set group =>   3


           ************************************************************
           *        Program running with 8 parallel MPI-processes     *
           *              working on a common directory               *
           ************************************************************
------------------------------------------------------------------------------
                             ORCA STARTUP CALCULATIONS
                           -- RI-GTO INTEGRALS CHOSEN --
------------------------------------------------------------------------------
------------------------------------------------------------------------------
                   ___                                                        
                  /   \      - P O W E R E D   B Y -                         
                 /     \                                                     
                 |  |  |   _    _      __       _____    __    __             
                 |  |  |  | |  | |    /  \     |  _  \  |  |  /  |          
                  \  \/   | |  | |   /    \    | | | |  |  | /  /          
                 / \  \   | |__| |  /  /\  \   | |_| |  |  |/  /          
                |  |  |   |  __  | /  /__\  \  |    /   |      \           
                |  |  |   | |  | | |   __   |  |    \   |  |\   \          
                \     /   | |  | | |  |  |  |  | |\  \  |  | \   \       
                 \___/    |_|  |_| |__|  |__|  |_| \__\ |__|  \__/        
                                                                              
                      - O R C A' S   B I G   F R I E N D -                    
                                      &                                       
                       - I N T E G R A L  F E E D E R -                       
                                                                              
 v1 FN, 2020, v2 2021, v3 2022-2024                                           
------------------------------------------------------------------------------


----------------------
SHARK INTEGRAL PACKAGE
----------------------

Number of atoms                             ...     24
Number of basis functions                   ...    264
Number of shells                            ...    120
Maximum angular momentum                    ...      2
Integral batch strategy                     ... SHARK/LIBINT Hybrid
RI-J (if used) integral strategy            ... SPLIT-RIJ (Revised 2003 algorithm where possible)
Printlevel                                  ...      1
Contraction scheme used                     ... SEGMENTED contraction
Prescreening option                         ... SCHWARTZ
   Thresh                                   ... 2.500e-11
   Tcut                                     ... 2.500e-12
   Tpresel                                  ... 2.500e-12 
Coulomb Range Separation                    ... NOT USED
Exchange Range Separation                   ... NOT USED
Multipole approximations                    ... NOT USED
Finite Nucleus Model                        ... NOT USED
CABS basis                                  ... NOT available
Auxiliary Coulomb fitting basis             ... AVAILABLE
   # of basis functions in Aux-J            ...    872
   # of shells in Aux-J                     ...    280
   Maximum angular momentum in Aux-J        ...      4
Auxiliary J/K fitting basis                 ... NOT available
Auxiliary Correlation fitting basis         ... NOT available
Auxiliary 'external' fitting basis          ... NOT available

Checking pre-screening integrals            ... done (  0.1 sec) Dimension = 120
Check shell pair data                       ... done (  0.0 sec)
Shell pair information
Shell pair cut-off parameter TPreSel        ...   2.5e-12
Total number of shell pairs                 ...      7260
Shell pairs after pre-screening             ...      6312
Total number of primitive shell pairs       ...     27260
Primitive shell pairs kept                  ...     15770
          la=0 lb=0:   1793 shell pairs
          la=1 lb=0:   2271 shell pairs
          la=1 lb=1:    756 shell pairs
          la=2 lb=0:    837 shell pairs
          la=2 lb=1:    551 shell pairs
          la=2 lb=2:    104 shell pairs

Reading point charge file                   ... ok (55656 point charges)
Calculating one electron integrals          ... done (  3.4 sec)
Calculating RI/J V-Matrix + Cholesky decomp.... done (  1.0 sec)
Calculating Nuclear repulsion               ... (+Point charges) done (  0.0 sec) ENN=   1152.030376839809 Eh

Diagonalization of the overlap matrix:
Smallest eigenvalue                        ... 4.690e-04
Time for diagonalization                   ...    0.028 sec
Threshold for overlap eigenvalues          ... 1.000e-07
Number of eigenvalues below threshold      ... 0
Time for construction of square roots      ...    0.047 sec
Total time needed                          ...    0.128 sec

-------------------
DFT GRID GENERATION
-------------------

General Integration Accuracy     IntAcc      ... 4.388
Radial Grid Type                 RadialGrid  ... OptM3 with GC (2021)
Angular Grid (max. ang.)         AngularGrid ... 4 (Lebedev-302)
Angular grid pruning method      GridPruning ... 4 (adaptive)
Weight generation scheme         WeightScheme... mBecke (2022)
Basis function cutoff            BFCut       ... 1.0000e-11
Integration weight cutoff        WCut        ... 1.0000e-14
Partially contracted basis set               ... off
Rotationally invariant grid construction     ... off
Angular grids for H and He will be reduced by one unit

Total number of grid points                  ...   121629
Total number of batches                      ...     1912
Average number of points per batch           ...       63
Average number of grid points per atom       ...     5068

--------------------
COSX GRID GENERATION
--------------------

GRIDX 1
-------
General Integration Accuracy     IntAcc      ... 3.816
Radial Grid Type                 RadialGrid  ... OptM3 with GC (2021)
Angular Grid (max. ang.)         AngularGrid ... 1 (Lebedev-50)
Angular grid pruning method      GridPruning ... 4 (adaptive)
Weight generation scheme         WeightScheme... mBecke (2022)
Basis function cutoff            BFCut       ... 1.0000e-11
Integration weight cutoff        WCut        ... 1.0000e-14
Partially contracted basis set               ... on
Rotationally invariant grid construction     ... off
Angular grids for H and He will be reduced by one unit

Total number of grid points                  ...    15403
Total number of batches                      ...      134
Average number of points per batch           ...      114
Average number of grid points per atom       ...      642
UseSFitting                                  ... on

GRIDX 2
-------
General Integration Accuracy     IntAcc      ... 4.020
Radial Grid Type                 RadialGrid  ... OptM3 with GC (2021)
Angular Grid (max. ang.)         AngularGrid ... 2 (Lebedev-110)
Angular grid pruning method      GridPruning ... 4 (adaptive)
Weight generation scheme         WeightScheme... mBecke (2022)
Basis function cutoff            BFCut       ... 1.0000e-11
Integration weight cutoff        WCut        ... 1.0000e-14
Partially contracted basis set               ... on
Rotationally invariant grid construction     ... off
Angular grids for H and He will be reduced by one unit

Total number of grid points                  ...    34411
Total number of batches                      ...      281
Average number of points per batch           ...      122
Average number of grid points per atom       ...     1434
UseSFitting                                  ... on

GRIDX 3
-------
General Integration Accuracy     IntAcc      ... 4.338
Radial Grid Type                 RadialGrid  ... OptM3 with GC (2021)
Angular Grid (max. ang.)         AngularGrid ... 3 (Lebedev-194)
Angular grid pruning method      GridPruning ... 4 (adaptive)
Weight generation scheme         WeightScheme... mBecke (2022)
Basis function cutoff            BFCut       ... 1.0000e-11
Integration weight cutoff        WCut        ... 1.0000e-14
Partially contracted basis set               ... on
Rotationally invariant grid construction     ... off
Angular grids for H and He will be reduced by one unit

Total number of grid points                  ...    75568
Total number of batches                      ...      603
Average number of points per batch           ...      125
Average number of grid points per atom       ...     3149
UseSFitting                                  ... on
Initializing property integral containers    ... done (  0.3 sec)

SHARK setup successfully completed in  14.7 seconds

Maximum memory used throughout the entire STARTUP-calculation: 36.0 MB


           ************************************************************
           *        Program running with 8 parallel MPI-processes     *
           *              working on a common directory               *
           ************************************************************
-------------------------------------------------------------------------------
                                 ORCA GUESS
                   Start orbitals & Density for SCF / CASSCF
-------------------------------------------------------------------------------

------------
SCF SETTINGS
------------
Hamiltonian:
 Density Functional     Method          .... DFT(GTOs)
 Exchange Functional    Exchange        .... B88
   X-Alpha parameter    XAlpha          ....  0.666667
   Becke's b parameter  XBeta           ....  0.004200
 Correlation Functional Correlation     .... LYP
 LDA part of GGA corr.  LDAOpt          .... VWN-5
 Gradients option       PostSCFGGA      .... off
 Hybrid DFT is turned on
   Fraction HF Exchange ScalHFX         ....  0.200000
   Scaling of DF-GGA-X  ScalDFX         ....  0.720000
   Scaling of DF-GGA-C  ScalDFC         ....  0.810000
   Scaling of DF-LDA-C  ScalLDAC        ....  1.000000
   Perturbative correction              ....  0.000000
   NL short-range parameter             ....  4.800000
 RI-approximation to the Coulomb term is turned on
   Number of AuxJ basis functions       .... 872
   RIJ-COSX (HFX calculated with COS-X)).... on


General Settings:
 Integral files         IntName         .... reactant_freq
 Hartree-Fock type      HFTyp           .... RHF
 Total Charge           Charge          ....   -2
 Multiplicity           Mult            ....    1
 Number of Electrons    NEL             ....  118
 Basis Dimension        Dim             ....  264
 Nuclear Repulsion      ENuc            ....   1152.0303768398 Eh

Convergence Acceleration:
 AO-DIIS                CNVDIIS         .... on
   Start iteration      DIISMaxIt       ....    12
   Startup error        DIISStart       ....  0.200000
   # of expansion vecs  DIISMaxEq       ....     5
   Bias factor          DIISBfac        ....   1.050
   Max. coefficient     DIISMaxC        ....  10.000
 MO-DIIS                CNVKDIIS        .... off
 Trust-Rad. Augm. Hess. CNVTRAH         .... auto
   Auto Start mean grad. ratio tolernc. ....  1.125000
   Auto Start start iteration           ....    50
   Auto Start num. interpolation iter.  ....    10
   Max. Number of Micro iterations      ....    24
   Max. Number of Macro iterations      .... Maxiter - #DIIS iter
   Number of Davidson start vectors     ....     2
   Converg. threshold    (grad. norm)   ....   1.000e-05
   Grad. Scal. Fac. for Micro threshold ....   0.100
   Minimum threshold for Micro iter.    ....   1.000e-02
   NR start threshold (gradient norm)   ....   1.000e-04
   Initial trust radius                 ....   0.400
   Minimum AH scaling param. (alpha)    ....   1.000
   Maximum AH scaling param. (alpha)    .... 1000.000
   Quad. conv. algorithm                .... NR
   White noise on init. David. guess    .... on
   Maximum white noise                  ....   0.010
   Pseudo random numbers                .... off
   Inactive MOs                         .... canonical
   Orbital update algorithm             .... Taylor
   Preconditioner                       .... Diag
   Full preconditioner red. dimension   ....   250
 SOSCF                  CNVSOSCF        .... on
   Start iteration      SOSCFMaxIt      ....   150
   Startup grad/error   SOSCFStart      ....  0.003300
   Hessian update       SOSCFHessUp     .... L-BFGS
 Level Shifting         CNVShift        .... on
   Level shift para.    LevelShift      ....    0.2500
   Turn off err/grad.   ShiftErr        ....    0.0010
 Zerner damping         CNVZerner       .... off
 Static damping         CNVDamp         .... on
   Fraction old density DampFac         ....    0.7000
   Max. Damping (<1)    DampMax         ....    0.9800
   Min. Damping (>=0)   DampMin         ....    0.0000
   Turn off err/grad.   DampErr         ....    0.1000

SCF Procedure:
 Maximum # iterations   MaxIter         ....   250
 SCF integral mode      SCFMode         .... Direct
   Integral package                     .... SHARK and LIBINT hybrid scheme
 Reset frequency        DirectResetFreq ....    20
 Integral Threshold     Thresh          ....  2.500e-11 Eh
 Primitive CutOff       TCut            ....  2.500e-12 Eh

Convergence Tolerance:
 Convergence Check Mode ConvCheckMode   .... Total+1el-Energy
 Convergence forced     ConvForced      .... 0
 Energy Change          TolE            ....  1.000e-08 Eh
 1-El. energy change                    ....  1.000e-05 Eh
 Orbital Gradient       TolG            ....  1.000e-05
 Orbital Rotation angle TolX            ....  1.000e-05
 DIIS Error             TolErr          ....  5.000e-07

------------------------------
INITIAL GUESS: MODEL POTENTIAL
------------------------------
Loading Hartree-Fock densities                     ... done
Calculating cut-offs                               ... done
Initializing the effective Hamiltonian             ... done
Setting up the integral package (SHARK)            ... done
Starting the Coulomb interaction                   ... done (   0.8 sec)
Making the grid                                    ... done (   1.0 sec)
Mapping shells                                     ... done
Starting the XC term evaluation                    ... done (   0.1 sec)
  promolecular density results
     # of electrons  =    115.995168922
     EX              =   -102.843244530
     EC              =     -4.058968434
     EX+EC           =   -106.902212964
Transforming the Hamiltonian                       ... done (   0.0 sec)
Diagonalizing the Hamiltonian                      ... done (   0.0 sec)
Back transforming the eigenvectors                 ... done (   0.1 sec)
Now organizing SCF variables                       ... done
                      ------------------
                      INITIAL GUESS DONE (   2.8 sec)
                      ------------------
             **** ENERGY FILE WAS UPDATED (reactant_freq.en.tmp) ****
Finished Guess after   5.1 sec
Maximum memory used throughout the entire GUESS-calculation: 20.0 MB


           ************************************************************
           *        Program running with 8 parallel MPI-processes     *
           *              working on a common directory               *
           ************************************************************

-------------------------------------------------------------------------------------------
                                      ORCA LEAN-SCF
                              memory conserving SCF solver
-------------------------------------------------------------------------------------------

----------------------------------------D-I-I-S--------------------------------------------
Iteration    Energy (Eh)           Delta-E    RMSDP     MaxDP     DIISErr   Damp  Time(sec)
-------------------------------------------------------------------------------------------
               ***  Starting incremental Fock matrix formation  ***
    1    -836.2543718574163449     0.00e+00  4.61e-03  1.92e-01  3.37e-01  0.700   7.2
    2    -836.5717833107560182    -3.17e-01  3.17e-03  1.39e-01  1.42e-01  0.700   6.5
                               ***Turning on AO-DIIS***
    3    -836.6891579882210408    -1.17e-01  1.22e-03  2.66e-02  3.84e-02  0.700   4.8
    4    -836.7626467373011110    -7.35e-02  1.94e-03  3.93e-02  2.02e-02  0.000   5.0
    5    -836.9267410728273262    -1.64e-01  4.80e-04  2.03e-02  6.35e-03  0.000   6.5
                              *** Initializing SOSCF ***
---------------------------------------S-O-S-C-F--------------------------------------
Iteration    Energy (Eh)           Delta-E    RMSDP     MaxDP     MaxGrad    Time(sec)
--------------------------------------------------------------------------------------
    6    -836.9274449024051137    -7.04e-04  1.50e-04  6.34e-03  1.32e-03     6.8
               *** Restarting incremental Fock matrix formation ***
    7    -836.9275079682126943    -6.31e-05  1.01e-04  2.40e-03  3.56e-04     8.3
    8    -836.9274992691023272     8.70e-06  4.47e-05  1.48e-03  8.65e-04     5.5
    9    -836.9275200492284057    -2.08e-05  2.27e-05  6.69e-04  8.34e-05     6.0
   10    -836.9275198029008607     2.46e-07  8.82e-06  2.52e-04  1.13e-04     6.2
   11    -836.9275204937746366    -6.91e-07  7.34e-06  1.94e-04  3.18e-05     6.8
   12    -836.9275204742693859     1.95e-08  3.90e-06  8.81e-05  3.13e-05     5.5
   13    -836.9275205504163750    -7.61e-08  1.41e-06  3.32e-05  4.75e-06     6.9
   14    -836.9275205457515767     4.66e-09  8.89e-07  2.51e-05  7.97e-06     4.7
                 **** Energy Check signals convergence ****

               *****************************************************
               *                     SUCCESS                       *
               *           SCF CONVERGED AFTER  14 CYCLES          *
               *****************************************************

Recomputing exchange energy using gridx3       ... done (    5.861 sec)
Old exchange energy                            :    -20.905335585 Eh
New exchange energy                            :    -20.905386463 Eh
Exchange energy change after final integration :     -0.000050878 Eh
Total energy after final integration           :   -836.927571424 Eh
             **** ENERGY FILE WAS UPDATED (reactant_freq.en.tmp) ****

----------------
TOTAL SCF ENERGY
----------------

Total Energy       :       -836.92757142387882 Eh          -22773.95702 eV

Components:
Nuclear Repulsion  :       1152.03037683980915 Eh           31348.34027 eV
Electronic Energy  :      -1988.95789738556073 Eh          -54122.29591 eV
One Electron Energy:      -3430.63493769014940 Eh          -93352.32259 eV
Two Electron Energy:       1441.67704030458867 Eh           39230.02668 eV

Virial components:
Potential Energy   :      -1666.37532555369580 Eh          -45344.37787 eV
Kinetic Energy     :        829.44775412981687 Eh           22570.42085 eV
Virial Ratio       :          2.00901782813543

DFT components:
N(Alpha)           :       59.000036740390 electrons
N(Beta)            :       59.000036740390 electrons
N(Total)           :      118.000073480780 electrons
E(X)               :      -83.176663112618 Eh       
E(C)               :       -4.849170492072 Eh       
E(XC)              :      -88.025833604689 Eh       

---------------
SCF CONVERGENCE
---------------

  Last Energy change         ...   -4.6648e-09  Tolerance :   1.0000e-08
  Last MAX-Density change    ...    2.5063e-05  Tolerance :   1.0000e-07
  Last RMS-Density change    ...    8.8917e-07  Tolerance :   5.0000e-09
  Last DIIS Error            ...    1.3159e-03  Tolerance :   5.0000e-07
  Last Orbital Gradient      ...    7.9663e-06  Tolerance :   1.0000e-05
  Last Orbital Rotation      ...    1.1336e-05  Tolerance :   1.0000e-05


----------------
ORBITAL ENERGIES
----------------

  NO   OCC          E(Eh)            E(eV) 
   0   2.0000     -19.209787      -522.7249 
   1   2.0000     -19.195684      -522.3411 
   2   2.0000     -19.142474      -520.8932 
   3   2.0000     -19.140702      -520.8450 
   4   2.0000     -19.127605      -520.4886 
   5   2.0000     -19.124905      -520.4151 
   6   2.0000     -10.335606      -281.2461 
   7   2.0000     -10.323195      -280.9084 
   8   2.0000     -10.300801      -280.2990 
   9   2.0000     -10.295128      -280.1447 
  10   2.0000     -10.284341      -279.8511 
  11   2.0000     -10.251933      -278.9693 
  12   2.0000     -10.248480      -278.8753 
  13   2.0000     -10.239049      -278.6187 
  14   2.0000     -10.237515      -278.5770 
  15   2.0000     -10.232549      -278.4418 
  16   2.0000      -1.098412       -29.8893 
  17   2.0000      -1.073402       -29.2087 
  18   2.0000      -1.067064       -29.0363 
  19   2.0000      -1.064674       -28.9712 
  20   2.0000      -0.987436       -26.8695 
  21   2.0000      -0.973766       -26.4975 
  22   2.0000      -0.885309       -24.0905 
  23   2.0000      -0.818719       -22.2785 
  24   2.0000      -0.798712       -21.7340 
  25   2.0000      -0.771121       -20.9833 
  26   2.0000      -0.692643       -18.8478 
  27   2.0000      -0.661826       -18.0092 
  28   2.0000      -0.651933       -17.7400 
  29   2.0000      -0.605147       -16.4669 
  30   2.0000      -0.580446       -15.7947 
  31   2.0000      -0.563460       -15.3325 
  32   2.0000      -0.550089       -14.9687 
  33   2.0000      -0.535731       -14.5780 
  34   2.0000      -0.520421       -14.1614 
  35   2.0000      -0.510362       -13.8877 
  36   2.0000      -0.505144       -13.7457 
  37   2.0000      -0.495367       -13.4796 
  38   2.0000      -0.484363       -13.1802 
  39   2.0000      -0.474556       -12.9133 
  40   2.0000      -0.468882       -12.7589 
  41   2.0000      -0.466148       -12.6845 
  42   2.0000      -0.455324       -12.3900 
  43   2.0000      -0.447332       -12.1725 
  44   2.0000      -0.443081       -12.0568 
  45   2.0000      -0.424693       -11.5565 
  46   2.0000      -0.418247       -11.3811 
  47   2.0000      -0.385823       -10.4988 
  48   2.0000      -0.379921       -10.3382 
  49   2.0000      -0.363767        -9.8986 
  50   2.0000      -0.337647        -9.1878 
  51   2.0000      -0.321583        -8.7507 
  52   2.0000      -0.317812        -8.6481 
  53   2.0000      -0.312397        -8.5008 
  54   2.0000      -0.306794        -8.3483 
  55   2.0000      -0.299802        -8.1580 
  56   2.0000      -0.298527        -8.1233 
  57   2.0000      -0.292326        -7.9546 
  58   2.0000      -0.279433        -7.6038 
  59   0.0000      -0.107798        -2.9333 
  60   0.0000      -0.073222        -1.9925 
  61   0.0000      -0.024986        -0.6799 
  62   0.0000       0.009001         0.2449 
  63   0.0000       0.027769         0.7556 
  64   0.0000       0.038388         1.0446 
  65   0.0000       0.047774         1.3000 
  66   0.0000       0.061997         1.6870 
  67   0.0000       0.067096         1.8258 
  68   0.0000       0.071655         1.9498 
  69   0.0000       0.081644         2.2217 
*Only the first 10 virtual orbitals were printed.

                    ********************************
                    * MULLIKEN POPULATION ANALYSIS *
                    ********************************

-----------------------
MULLIKEN ATOMIC CHARGES
-----------------------
   0 C :    0.042479
   1 H :    0.019646
   2 H :    0.002022
   3 C :    0.005411
   4 C :    0.125457
   5 O :   -0.515886
   6 O :   -0.485996
   7 O :   -0.432616
   8 C :    0.195744
   9 H :    0.012870
  10 C :   -0.047673
  11 H :   -0.001163
  12 C :   -0.025619
  13 C :    0.024175
  14 H :   -0.028971
  15 C :   -0.096471
  16 H :   -0.000661
  17 C :    0.250403
  18 H :   -0.017363
  19 O :   -0.361786
  20 H :    0.192346
  21 C :    0.103601
  22 O :   -0.496785
  23 O :   -0.463163
Sum of atomic charges:   -2.0000000

--------------------------------
MULLIKEN REDUCED ORBITAL CHARGES
--------------------------------
  0 C s       :     3.113163  s :     3.113163
      pz      :     0.960387  p :     2.819450
      px      :     0.987609
      py      :     0.871454
      dz2     :     0.001652  d :     0.024908
      dxz     :     0.005801
      dyz     :     0.000537
      dx2y2   :     0.008224
      dxy     :     0.008694

  1 H s       :     0.956203  s :     0.956203
      pz      :     0.004763  p :     0.024151
      px      :     0.006393
      py      :     0.012995

  2 H s       :     0.973706  s :     0.973706
      pz      :     0.004892  p :     0.024273
      px      :     0.007467
      py      :     0.011914

  3 C s       :     3.142473  s :     3.142473
      pz      :     1.028946  p :     2.785350
      px      :     0.878310
      py      :     0.878094
      dz2     :     0.004893  d :     0.066767
      dxz     :     0.009890
      dyz     :     0.006596
      dx2y2   :     0.020958
      dxy     :     0.024429

  4 C s       :     3.041248  s :     3.041248
      pz      :     0.832161  p :     2.697131
      px      :     0.912885
      py      :     0.952086
      dz2     :     0.009562  d :     0.136164
      dxz     :     0.026888
      dyz     :     0.012906
      dx2y2   :     0.042152
      dxy     :     0.044656

  5 O s       :     3.709146  s :     3.709146
      pz      :     1.582800  p :     4.793935
      px      :     1.666841
      py      :     1.544294
      dz2     :     0.001566  d :     0.012806
      dxz     :     0.001551
      dyz     :     0.002607
      dx2y2   :     0.002643
      dxy     :     0.004438

  6 O s       :     3.730553  s :     3.730553
      pz      :     1.577608  p :     4.742107
      px      :     1.358582
      py      :     1.805918
      dz2     :     0.001635  d :     0.013336
      dxz     :     0.003830
      dyz     :     0.000100
      dx2y2   :     0.005111
      dxy     :     0.002661

  7 O s       :     3.745569  s :     3.745569
      pz      :     1.561676  p :     4.672884
      px      :     1.684245
      py      :     1.426964
      dz2     :     0.003133  d :     0.014163
      dxz     :     0.002095
      dyz     :     0.003649
      dx2y2   :     0.001924
      dxy     :     0.003362

  8 C s       :     3.002705  s :     3.002705
      pz      :     0.839564  p :     2.738811
      px      :     1.003647
      py      :     0.895600
      dz2     :     0.011880  d :     0.062740
      dxz     :     0.012886
      dyz     :     0.017000
      dx2y2   :     0.008138
      dxy     :     0.012837

  9 H s       :     0.966466  s :     0.966466
      pz      :     0.004058  p :     0.020663
      px      :     0.007508
      py      :     0.009097

 10 C s       :     3.228190  s :     3.228190
      pz      :     0.944521  p :     2.786006
      px      :     0.935675
      py      :     0.905810
      dz2     :     0.006550  d :     0.033476
      dxz     :     0.008426
      dyz     :     0.005994
      dx2y2   :     0.005333
      dxy     :     0.007174

 11 H s       :     0.978123  s :     0.978123
      pz      :     0.007868  p :     0.023041
      px      :     0.006205
      py      :     0.008968

 12 C s       :     3.124295  s :     3.124295
      pz      :     0.928608  p :     2.862043
      px      :     0.971345
      py      :     0.962090
      dz2     :     0.008729  d :     0.039281
      dxz     :     0.008920
      dyz     :     0.006756
      dx2y2   :     0.007772
      dxy     :     0.007104

 13 C s       :     3.203476  s :     3.203476
      pz      :     0.887261  p :     2.737271
      px      :     0.880319
      py      :     0.969691
      dz2     :     0.004660  d :     0.035078
      dxz     :     0.009695
      dyz     :     0.004593
      dx2y2   :     0.007614
      dxy     :     0.008516

 14 H s       :     1.006020  s :     1.006020
      pz      :     0.009874  p :     0.022951
      px      :     0.007914
      py      :     0.005163

 15 C s       :     3.191222  s :     3.191222
      pz      :     0.964616  p :     2.872092
      px      :     0.958159
      py      :     0.949317
      dz2     :     0.003539  d :     0.033157
      dxz     :     0.010171
      dyz     :     0.004910
      dx2y2   :     0.006724
      dxy     :     0.007814

 16 H s       :     0.977828  s :     0.977828
      pz      :     0.008090  p :     0.022833
      px      :     0.005367
      py      :     0.009376

 17 C s       :     2.942441  s :     2.942441
      pz      :     0.938741  p :     2.739439
      px      :     0.904814
      py      :     0.895884
      dz2     :     0.008997  d :     0.067716
      dxz     :     0.016986
      dyz     :     0.014924
      dx2y2   :     0.010713
      dxy     :     0.016096

 18 H s       :     0.994940  s :     0.994940
      pz      :     0.006782  p :     0.022423
      px      :     0.005243
      py      :     0.010397

 19 O s       :     3.729674  s :     3.729674
      pz      :     1.550722  p :     4.620176
      px      :     1.422275
      py      :     1.647179
      dz2     :     0.001767  d :     0.011936
      dxz     :     0.004636
      dyz     :     0.002743
      dx2y2   :     0.001262
      dxy     :     0.001527

 20 H s       :     0.741986  s :     0.741986
      pz      :     0.022447  p :     0.065668
      px      :     0.024955
      py      :     0.018266

 21 C s       :     3.030270  s :     3.030270
      pz      :     0.906897  p :     2.728177
      px      :     0.982297
      py      :     0.838983
      dz2     :     0.044706  d :     0.137953
      dxz     :     0.041064
      dyz     :     0.031242
      dx2y2   :     0.011580
      dxy     :     0.009361

 22 O s       :     3.722650  s :     3.722650
      pz      :     1.507462  p :     4.761293
      px      :     1.670942
      py      :     1.582889
      dz2     :     0.003191  d :     0.012843
      dxz     :     0.004233
      dyz     :     0.002921
      dx2y2   :     0.001227
      dxy     :     0.001270

 23 O s       :     3.721896  s :     3.721896
      pz      :     1.402891  p :     4.727559
      px      :     1.746115
      py      :     1.578553
      dz2     :     0.005739  d :     0.013708
      dxz     :     0.003764
      dyz     :     0.003459
      dx2y2   :     0.000341
      dxy     :     0.000403



                     *******************************
                     * LOEWDIN POPULATION ANALYSIS *
                     *******************************

----------------------
LOEWDIN ATOMIC CHARGES
----------------------
   0 C :   -0.031827
   1 H :    0.024917
   2 H :    0.024363
   3 C :   -0.030063
   4 C :   -0.032587
   5 O :   -0.461552
   6 O :   -0.430503
   7 O :   -0.191522
   8 C :    0.077797
   9 H :    0.033206
  10 C :   -0.005997
  11 H :    0.026583
  12 C :   -0.068856
  13 C :   -0.021019
  14 H :    0.020884
  15 C :   -0.056431
  16 H :    0.022875
  17 C :    0.053711
  18 H :    0.006873
  19 O :   -0.169215
  20 H :    0.089370
  21 C :   -0.017786
  22 O :   -0.446798
  23 O :   -0.416423

-------------------------------
LOEWDIN REDUCED ORBITAL CHARGES
-------------------------------
  0 C s       :     2.892417  s :     2.892417
      pz      :     0.952669  p :     3.072208
      px      :     1.073053
      py      :     1.046486
      dz2     :     0.005014  d :     0.067202
      dxz     :     0.011769
      dyz     :     0.001146
      dx2y2   :     0.023355
      dxy     :     0.025917

  1 H s       :     0.903265  s :     0.903265
      pz      :     0.014982  p :     0.071818
      px      :     0.017889
      py      :     0.038947

  2 H s       :     0.904781  s :     0.904781
      pz      :     0.015232  p :     0.070856
      px      :     0.020141
      py      :     0.035484

  3 C s       :     2.890633  s :     2.890633
      pz      :     1.001708  p :     2.978523
      px      :     1.045195
      py      :     0.931619
      dz2     :     0.011947  d :     0.160907
      dxz     :     0.020940
      dyz     :     0.013727
      dx2y2   :     0.053933
      dxy     :     0.060360

  4 C s       :     2.864390  s :     2.864390
      pz      :     0.827749  p :     2.847002
      px      :     1.007366
      py      :     1.011888
      dz2     :     0.022024  d :     0.321195
      dxz     :     0.056622
      dyz     :     0.026787
      dx2y2   :     0.103837
      dxy     :     0.111925

  5 O s       :     3.565513  s :     3.565513
      pz      :     1.576123  p :     4.872726
      px      :     1.702848
      py      :     1.593754
      dz2     :     0.003064  d :     0.023314
      dxz     :     0.002374
      dyz     :     0.004013
      dx2y2   :     0.004855
      dxy     :     0.009008

  6 O s       :     3.566520  s :     3.566520
      pz      :     1.568477  p :     4.839902
      px      :     1.470502
      py      :     1.800923
      dz2     :     0.003559  d :     0.024080
      dxz     :     0.005080
      dyz     :     0.000126
      dx2y2   :     0.010790
      dxy     :     0.004525

  7 O s       :     3.465036  s :     3.465036
      pz      :     1.569334  p :     4.699608
      px      :     1.682208
      py      :     1.448067
      dz2     :     0.005428  d :     0.026878
      dxz     :     0.003386
      dyz     :     0.007389
      dx2y2   :     0.004029
      dxy     :     0.006645

  8 C s       :     2.862046  s :     2.862046
      pz      :     0.908502  p :     2.914452
      px      :     1.058472
      py      :     0.947478
      dz2     :     0.026541  d :     0.145706
      dxz     :     0.030752
      dyz     :     0.039690
      dx2y2   :     0.017744
      dxy     :     0.030978

  9 H s       :     0.901480  s :     0.901480
      pz      :     0.013996  p :     0.065314
      px      :     0.023055
      py      :     0.028263

 10 C s       :     2.876154  s :     2.876154
      pz      :     1.025611  p :     3.041377
      px      :     1.017252
      py      :     0.998514
      dz2     :     0.015727  d :     0.088467
      dxz     :     0.024042
      dyz     :     0.016451
      dx2y2   :     0.014015
      dxy     :     0.018232

 11 H s       :     0.901641  s :     0.901641
      pz      :     0.023441  p :     0.071776
      px      :     0.020861
      py      :     0.027475

 12 C s       :     2.885182  s :     2.885182
      pz      :     1.031000  p :     3.079946
      px      :     1.052900
      py      :     0.996046
      dz2     :     0.021444  d :     0.103728
      dxz     :     0.024578
      dyz     :     0.018604
      dx2y2   :     0.021140
      dxy     :     0.017963

 13 C s       :     2.870202  s :     2.870202
      pz      :     0.997946  p :     3.058887
      px      :     1.066655
      py      :     0.994286
      dz2     :     0.011788  d :     0.091930
      dxz     :     0.025791
      dyz     :     0.010993
      dx2y2   :     0.020673
      dxy     :     0.022685

 14 H s       :     0.910307  s :     0.910307
      pz      :     0.028821  p :     0.068809
      px      :     0.023471
      py      :     0.016517

 15 C s       :     2.879792  s :     2.879792
      pz      :     1.003051  p :     3.090892
      px      :     1.071130
      py      :     1.016710
      dz2     :     0.009711  d :     0.085748
      dxz     :     0.026384
      dyz     :     0.011549
      dx2y2   :     0.017653
      dxy     :     0.020451

 16 H s       :     0.907768  s :     0.907768
      pz      :     0.025206  p :     0.069357
      px      :     0.016383
      py      :     0.027768

 17 C s       :     2.846873  s :     2.846873
      pz      :     1.016440  p :     2.944789
      px      :     0.956893
      py      :     0.971457
      dz2     :     0.017606  d :     0.154627
      dxz     :     0.042523
      dyz     :     0.036538
      dx2y2   :     0.021626
      dxy     :     0.036334

 18 H s       :     0.919780  s :     0.919780
      pz      :     0.020654  p :     0.073348
      px      :     0.017819
      py      :     0.034875

 19 O s       :     3.453660  s :     3.453660
      pz      :     1.598315  p :     4.692841
      px      :     1.446195
      py      :     1.648332
      dz2     :     0.002268  d :     0.022714
      dxz     :     0.009579
      dyz     :     0.004461
      dx2y2   :     0.002610
      dxy     :     0.003796

 20 H s       :     0.732909  s :     0.732909
      pz      :     0.066301  p :     0.177721
      px      :     0.063679
      py      :     0.047741

 21 C s       :     2.853395  s :     2.853395
      pz      :     1.010667  p :     2.839966
      px      :     1.000176
      py      :     0.829124
      dz2     :     0.115249  d :     0.324424
      dxz     :     0.095710
      dyz     :     0.066763
      dx2y2   :     0.026440
      dxy     :     0.020262

 22 O s       :     3.567485  s :     3.567485
      pz      :     1.586565  p :     4.855934
      px      :     1.691279
      py      :     1.578089
      dz2     :     0.005967  d :     0.023380
      dxz     :     0.008610
      dyz     :     0.004733
      dx2y2   :     0.001888
      dxy     :     0.002181

 23 O s       :     3.566672  s :     3.566672
      pz      :     1.502705  p :     4.825217
      px      :     1.750228
      py      :     1.572284
      dz2     :     0.011587  d :     0.024534
      dxz     :     0.007281
      dyz     :     0.004502
      dx2y2   :     0.000659
      dxy     :     0.000504



                      *****************************
                      * MAYER POPULATION ANALYSIS *
                      *****************************

  NA   - Mulliken gross atomic population
  ZA   - Total nuclear charge
  QA   - Mulliken gross atomic charge
  VA   - Mayer's total valence
  BVA  - Mayer's bonded valence
  FA   - Mayer's free valence

  ATOM       NA         ZA         QA         VA         BVA        FA
  0 C      5.9575     6.0000     0.0425     3.8953     3.8953     0.0000
  1 H      0.9804     1.0000     0.0196     1.0243     1.0243    -0.0000
  2 H      0.9980     1.0000     0.0020     1.0139     1.0139     0.0000
  3 C      5.9946     6.0000     0.0054     3.9265     3.9265     0.0000
  4 C      5.8745     6.0000     0.1255     4.4830     4.4830    -0.0000
  5 O      8.5159     8.0000    -0.5159     1.9748     1.9748     0.0000
  6 O      8.4860     8.0000    -0.4860     1.9887     1.9887    -0.0000
  7 O      8.4326     8.0000    -0.4326     2.0344     2.0344    -0.0000
  8 C      5.8043     6.0000     0.1957     3.8710     3.8710    -0.0000
  9 H      0.9871     1.0000     0.0129     1.0042     1.0042    -0.0000
 10 C      6.0477     6.0000    -0.0477     3.9289     3.9289    -0.0000
 11 H      1.0012     1.0000    -0.0012     1.0159     1.0159    -0.0000
 12 C      6.0256     6.0000    -0.0256     3.7119     3.7119    -0.0000
 13 C      5.9758     6.0000     0.0242     3.9100     3.9100    -0.0000
 14 H      1.0290     1.0000    -0.0290     1.0127     1.0127    -0.0000
 15 C      6.0965     6.0000    -0.0965     3.8501     3.8501    -0.0000
 16 H      1.0007     1.0000    -0.0007     0.9869     0.9869     0.0000
 17 C      5.7496     6.0000     0.2504     3.8992     3.8992    -0.0000
 18 H      1.0174     1.0000    -0.0174     1.0654     1.0654     0.0000
 19 O      8.3618     8.0000    -0.3618     2.0460     2.0460     0.0000
 20 H      0.8077     1.0000     0.1923     1.0039     1.0039     0.0000
 21 C      5.8964     6.0000     0.1036     4.5341     4.5341    -0.0000
 22 O      8.4968     8.0000    -0.4968     1.9772     1.9772    -0.0000
 23 O      8.4632     8.0000    -0.4632     2.0214     2.0214    -0.0000

  Mayer bond orders larger than 0.100000
B(  0-C ,  1-H ) :   0.9172 B(  0-C ,  2-H ) :   0.9237 B(  0-C ,  3-C ) :   1.9457 
B(  3-C ,  4-C ) :   0.8819 B(  3-C ,  7-O ) :   1.0257 B(  4-C ,  5-O ) :   1.8096 
B(  4-C ,  6-O ) :   1.7665 B(  5-O ,  6-O ) :   0.1025 B(  7-O ,  8-C ) :   0.9013 
B(  8-C ,  9-H ) :   0.9119 B(  8-C , 10-C ) :   1.0009 B(  8-C , 17-C ) :   0.9685 
B( 10-C , 11-H ) :   0.9585 B( 10-C , 12-C ) :   1.7689 B( 12-C , 13-C ) :   1.0803 
B( 12-C , 21-C ) :   0.8601 B( 13-C , 14-H ) :   0.9751 B( 13-C , 15-C ) :   1.7823 
B( 15-C , 16-H ) :   0.9680 B( 15-C , 17-C ) :   0.9751 B( 17-C , 18-H ) :   0.8903 
B( 17-C , 19-O ) :   1.0438 B( 19-O , 20-H ) :   0.9628 B( 21-C , 22-O ) :   1.8022 
B( 21-C , 23-O ) :   1.8644 B( 22-O , 23-O ) :   0.1012 

-------
TIMINGS
-------

Total SCF time: 0 days 0 hours 1 min 36 sec 

Total time                  ....      96.841 sec
Sum of individual times     ....      92.833 sec  ( 95.9%)

SCF preparation             ....       1.848 sec  (  1.9%)
Fock matrix formation       ....      72.088 sec  ( 74.4%)
  Startup                   ....       2.939 sec  (  4.1% of F)
  Split-RI-J                ....       8.730 sec  ( 12.1% of F)
  Chain of spheres X        ....      34.628 sec  ( 48.0% of F)
  XC integration            ....      17.931 sec  ( 24.9% of F)
    XC Preparation          ....       0.000 sec  (  0.0% of XC)
    Basis function eval.    ....       1.969 sec  ( 11.0% of XC)
    Density eval.           ....       1.164 sec  (  6.5% of XC)
    XC-Functional eval.     ....       0.331 sec  (  1.8% of XC)
    XC-Potential eval.      ....       1.224 sec  (  6.8% of XC)
Diagonalization             ....       0.000 sec  (  0.0%)
Density matrix formation    ....       4.930 sec  (  5.1%)
Total Energy calculation    ....       2.436 sec  (  2.5%)
Population analysis         ....       0.891 sec  (  0.9%)
Orbital Transformation      ....       1.206 sec  (  1.2%)
Orbital Orthonormalization  ....       0.000 sec  (  0.0%)
DIIS solution               ....       4.856 sec  (  5.0%)
SOSCF solution              ....       4.579 sec  (  4.7%)
Finished LeanSCF after  97.8 sec

Maximum memory used throughout the entire LEANSCF-calculation: 30.9 MB


-------------------------------------------------------------------------------
                          DFT DISPERSION CORRECTION                            
                                                                               
                              DFTD3 V3.1  Rev 1                                
                          USING Becke-Johnson damping                          
-------------------------------------------------------------------------------
The B3LYP functional is recognized
Active option DFTDOPT                   ...         4   

molecular C6(AA) [au] = 6928.072561 


            DFT-D V3
 parameters
 s6 scaling factor         :     1.0000 
 a1 scaling factor         :     0.3981 
 s8 scaling factor         :     1.9889 
 a2 scaling factor         :     4.4211 
 ad hoc parameters k1-k3   :    16.0000     1.3333    -4.0000 

 Edisp/kcal,au: -33.253573650983  -0.052992937124 
 E6   /kcal   : -15.586762816 
 E8   /kcal   : -17.666810835 
 % E8         :  53.127555613 

-------------------------   ----------------
Dispersion correction           -0.052992937
-------------------------   ----------------


No LJ-filename given... skipping QMMM VDW energy

-------------------------   --------------------
FINAL SINGLE POINT ENERGY      -836.980564361003
-------------------------   --------------------



--------------------------------------   --------------------
FINAL SINGLE POINT ENERGY (QM/MM)    -1076.130477768885
--------------------------------------   --------------------

                    ************************************                      
                    *    QM/MM Gradient Calculation    *                      
                    ************************************                      


------------------------------------------------------------------------------
                                     MM                                       
------------------------------------------------------------------------------
------------------------------------------------------------------------------
                                     QM                                       
------------------------------------------------------------------------------


           ************************************************************
           *        Program running with 8 parallel MPI-processes     *
           *              working on a common directory               *
           ************************************************************
------------------------------------------------------------------------------
                         ORCA SCF GRADIENT CALCULATION
------------------------------------------------------------------------------

Nuc. rep. gradient        (SHARK) ... done (  0.0 sec)
HCore & Overlap gradient  (SHARK) ... done (  0.2 sec)
Split-RIJ-J gradient      (SHARK) ... done (  1.5 sec)
COSX-gradient                     ... done ( 17.1 sec)
XC gradient                       ... done (  3.0 sec)
Point charge gradient             ... done ( 16.1 sec)
Dispersion correction             ... done (  0.0 sec)

-------------------
DISPERSION GRADIENT
-------------------

   1   C   :    0.000719392    0.000642690    0.001006684
   2   H   :    0.000343207    0.000112921    0.000431495
   3   H   :    0.000306734    0.000201205    0.000183948
   4   C   :    0.000129613    0.000706049    0.001016903
   5   C   :   -0.000096831    0.001011467    0.000602740
   6   O   :    0.000021854    0.000652193    0.000099643
   7   O   :   -0.000394157    0.000650014    0.000348189
   8   O   :   -0.000220441   -0.000103256    0.000726781
   9   C   :   -0.000488347   -0.000591417    0.000272006
  10   H   :   -0.000272173   -0.000351435    0.000241357
  11   C   :    0.000077523   -0.000904688    0.000173947
  12   H   :    0.000066311   -0.000498011    0.000189387
  13   C   :    0.000584761   -0.000586532   -0.000643676
  14   C   :    0.000142641    0.000086081   -0.001183833
  15   H   :    0.000089920    0.000178401   -0.000388267
  16   C   :   -0.000439454    0.000170697   -0.001146176
  17   H   :   -0.000136371    0.000209488   -0.000391242
  18   C   :   -0.000773145   -0.000250808   -0.000383286
  19   H   :   -0.000489918    0.000073382   -0.000064605
  20   O   :   -0.000670034   -0.000218642   -0.000247175
  21   H   :   -0.000370895   -0.000160789   -0.000048414
  22   C   :    0.000761267   -0.000476390   -0.000418741
  23   O   :    0.000634030   -0.000379113   -0.000042540
  24   O   :    0.000474514   -0.000173507   -0.000335124

Difference to translation invariance:
           :   -0.0000000000    0.0000000000   -0.0000000000

Difference to rotation invariance:
           :   -0.0000000000    0.0000000000    0.0000000000

Norm of the Dispersion gradient    ...    0.0041601754
RMS gradient                       ...    0.0004902814
MAX gradient                       ...    0.0011838329
QMMM VDW gradient                ... 
No LJ-filename given... skipping QMMM VDW gradientdone (  0.0 sec)

------------------
CARTESIAN GRADIENT
------------------

   1   C   :   -0.000220673   -0.000856731   -0.001768343
   2   H   :   -0.000643301    0.000276953    0.000205025
   3   H   :    0.000013243   -0.000279279   -0.000004765
   4   C   :    0.000257297    0.000316373   -0.000605417
   5   C   :   -0.000303482   -0.000527701    0.000232721
   6   O   :   -0.003749828   -0.014944530    0.006901596
   7   O   :    0.015062288   -0.009700231    0.006304590
   8   O   :    0.007729053    0.002235340   -0.005388679
   9   C   :    0.000873608   -0.000586909   -0.001029216
  10   H   :    0.000309214   -0.000228381   -0.000637990
  11   C   :   -0.000423953    0.000481670    0.000342751
  12   H   :    0.000300941    0.000911491   -0.000073757
  13   C   :    0.000271488   -0.000061184   -0.000203642
  14   C   :   -0.000488161    0.001396621    0.001781557
  15   H   :    0.000082600    0.000548614    0.000827625
  16   C   :   -0.000899470   -0.000120271    0.000049945
  17   H   :    0.000069482   -0.000439654    0.000208281
  18   C   :    0.000398250   -0.000568201   -0.001376105
  19   H   :    0.000523943    0.000392541   -0.001201061
  20   O   :    0.000657565    0.002541411    0.004491300
  21   H   :    0.000100743   -0.000029515   -0.000071745
  22   C   :   -0.000601960   -0.000280472   -0.000530880
  23   O   :   -0.009152946    0.008900569   -0.007665765
  24   O   :   -0.015824481   -0.011187605    0.007248070

Difference to translation invariance:
           :   -0.0056585404   -0.0218090819    0.0080360968

Difference to rotation invariance:
           :    2.8833570970   -1.3252325671   -2.1613192478

Norm of the Cartesian gradient     ...    0.0379293776
RMS gradient                       ...    0.0044700200
MAX gradient                       ...    0.0158244813

-------
TIMINGS
-------

Total SCF gradient time     ....       37.945 sec

Densities                   ....       0.002 sec  (  0.0%)
One electron gradient       ....       0.231 sec  (  0.6%)
RI-J Coulomb gradient       ....       1.514 sec  (  4.0%)
COSX gradient               ....      17.089 sec  ( 45.0%)
XC gradient                 ....       2.952 sec  (  7.8%)

Maximum memory used throughout the entire SCFGRAD-calculation: 35.8 MB


------------------
CARTESIAN GRADIENT (QM/MM)
------------------
   1   C   :   -0.000182076   -0.001152888    0.000551451   (inactive)
   2   C   :   -0.000196303    0.000279812    0.000510184   (inactive)
   3   H   :    0.000097621    0.000265233    0.000547206   (inactive)
   4   H   :    0.000267345    0.000850601    0.001413255   (inactive)
   5   H   :    0.000164701    0.000052617   -0.000104973   (inactive)
   6   N   :   -0.000430249   -0.000257847   -0.000020056   (inactive)
   7   H   :    0.000093633    0.000071061    0.000038887   (inactive)
   8   C   :    0.000573503   -0.000499546   -0.000071857   (inactive)
   9   H   :   -0.000064724    0.000173961    0.000246188   (inactive)
  10   C   :   -0.000634697    0.000498825    0.000283417
  11   H   :    0.000079532   -0.000127778   -0.000098538
  12   H   :    0.000289545   -0.000005573    0.000009656
  13   C   :   -0.000172861   -0.000532362   -0.000048015
  14   H   :    0.000066820   -0.000032921   -0.000066202
  15   H   :    0.000219798    0.000240944    0.000027158
[...]
freq.     657.09  E(vib)   ...       0.08 
freq.     665.24  E(vib)   ...       0.08 
freq.     667.02  E(vib)   ...       0.08 
freq.     667.38  E(vib)   ...       0.08 
freq.     670.76  E(vib)   ...       0.08 
freq.     677.22  E(vib)   ...       0.08 
freq.     678.01  E(vib)   ...       0.08 
freq.     679.31  E(vib)   ...       0.08 
freq.     683.30  E(vib)   ...       0.08 
freq.     694.67  E(vib)   ...       0.07 
freq.     707.37  E(vib)   ...       0.07 
freq.     714.91  E(vib)   ...       0.07 
freq.     725.28  E(vib)   ...       0.06 
freq.     744.65  E(vib)   ...       0.06 
freq.     747.35  E(vib)   ...       0.06 
freq.     756.29  E(vib)   ...       0.06 
freq.     758.71  E(vib)   ...       0.06 
freq.     764.98  E(vib)   ...       0.06 
freq.     769.04  E(vib)   ...       0.06 
freq.     774.56  E(vib)   ...       0.05 
freq.     777.74  E(vib)   ...       0.05 
freq.     781.63  E(vib)   ...       0.05 
freq.     784.14  E(vib)   ...       0.05 
freq.     785.78  E(vib)   ...       0.05 
freq.     788.47  E(vib)   ...       0.05 
freq.     794.58  E(vib)   ...       0.05 
freq.     814.94  E(vib)   ...       0.05 
freq.     821.93  E(vib)   ...       0.05 
freq.     822.12  E(vib)   ...       0.05 
freq.     832.96  E(vib)   ...       0.04 
freq.     835.53  E(vib)   ...       0.04 
freq.     836.21  E(vib)   ...       0.04 
freq.     839.43  E(vib)   ...       0.04 
freq.     840.79  E(vib)   ...       0.04 
freq.     841.86  E(vib)   ...       0.04 
freq.     843.00  E(vib)   ...       0.04 
freq.     852.60  E(vib)   ...       0.04 
freq.     872.06  E(vib)   ...       0.04 
freq.     883.91  E(vib)   ...       0.04 
freq.     886.72  E(vib)   ...       0.04 
freq.     890.32  E(vib)   ...       0.04 
freq.     890.79  E(vib)   ...       0.04 
freq.     902.39  E(vib)   ...       0.03 
freq.     907.82  E(vib)   ...       0.03 
freq.     919.66  E(vib)   ...       0.03 
freq.     925.30  E(vib)   ...       0.03 
freq.     937.11  E(vib)   ...       0.03 
freq.     938.93  E(vib)   ...       0.03 
freq.     941.27  E(vib)   ...       0.03 
freq.     944.44  E(vib)   ...       0.03 
freq.     952.21  E(vib)   ...       0.03 
freq.     953.55  E(vib)   ...       0.03 
freq.     965.09  E(vib)   ...       0.03 
freq.     974.30  E(vib)   ...       0.03 
freq.     975.04  E(vib)   ...       0.03 
freq.     979.35  E(vib)   ...       0.03 
freq.     993.62  E(vib)   ...       0.02 
freq.     994.93  E(vib)   ...       0.02 
freq.    1001.66  E(vib)   ...       0.02 
freq.    1012.62  E(vib)   ...       0.02 
freq.    1019.70  E(vib)   ...       0.02 
freq.    1020.27  E(vib)   ...       0.02 
freq.    1025.07  E(vib)   ...       0.02 
freq.    1026.12  E(vib)   ...       0.02 
freq.    1030.11  E(vib)   ...       0.02 
freq.    1044.40  E(vib)   ...       0.02 
freq.    1045.52  E(vib)   ...       0.02 
freq.    1047.43  E(vib)   ...       0.02 
freq.    1055.78  E(vib)   ...       0.02 
freq.    1061.17  E(vib)   ...       0.02 
freq.    1067.12  E(vib)   ...       0.02 
freq.    1085.33  E(vib)   ...       0.02 
freq.    1132.90  E(vib)   ...       0.01 
freq.    1134.73  E(vib)   ...       0.01 
freq.    1136.02  E(vib)   ...       0.01 
freq.    1139.97  E(vib)   ...       0.01 
freq.    1151.01  E(vib)   ...       0.01 
freq.    1156.11  E(vib)   ...       0.01 
freq.    1170.43  E(vib)   ...       0.01 
freq.    1177.49  E(vib)   ...       0.01 
freq.    1195.18  E(vib)   ...       0.01 
freq.    1199.92  E(vib)   ...       0.01 
freq.    1202.18  E(vib)   ...       0.01 
freq.    1203.60  E(vib)   ...       0.01 
freq.    1207.58  E(vib)   ...       0.01 
freq.    1226.24  E(vib)   ...       0.01 
freq.    1259.22  E(vib)   ...       0.01 
freq.    1268.08  E(vib)   ...       0.01 
freq.    1272.83  E(vib)   ...       0.01 
freq.    1277.02  E(vib)   ...       0.01 
freq.    1281.01  E(vib)   ...       0.01 
freq.    1285.56  E(vib)   ...       0.01 
freq.    1294.96  E(vib)   ...       0.01 
freq.    1297.46  E(vib)   ...       0.01 
freq.    1298.10  E(vib)   ...       0.01 
freq.    1299.30  E(vib)   ...       0.01 
freq.    1309.03  E(vib)   ...       0.01 
freq.    1317.99  E(vib)   ...       0.01 
freq.    1318.08  E(vib)   ...       0.01 
freq.    1318.68  E(vib)   ...       0.01 
freq.    1325.54  E(vib)   ...       0.01 
freq.    1338.51  E(vib)   ...       0.01 
freq.    1349.71  E(vib)   ...       0.01 
freq.    1349.95  E(vib)   ...       0.01 
freq.    1379.97  E(vib)   ...       0.01 
freq.    1404.91  E(vib)   ...       0.00 
freq.    1410.42  E(vib)   ...       0.00 
freq.    1416.40  E(vib)   ...       0.00 
freq.    1421.18  E(vib)   ...       0.00 
freq.    1424.29  E(vib)   ...       0.00 
freq.    1426.52  E(vib)   ...       0.00 
freq.    1431.97  E(vib)   ...       0.00 
freq.    1433.98  E(vib)   ...       0.00 
freq.    1436.01  E(vib)   ...       0.00 
freq.    1436.37  E(vib)   ...       0.00 
freq.    1445.70  E(vib)   ...       0.00 
freq.    1447.04  E(vib)   ...       0.00 
freq.    1454.14  E(vib)   ...       0.00 
freq.    1461.21  E(vib)   ...       0.00 
freq.    1463.55  E(vib)   ...       0.00 
freq.    1465.23  E(vib)   ...       0.00 
freq.    1465.79  E(vib)   ...       0.00 
freq.    1467.57  E(vib)   ...       0.00 
freq.    1470.60  E(vib)   ...       0.00 
freq.    1470.78  E(vib)   ...       0.00 
freq.    1471.12  E(vib)   ...       0.00 
freq.    1499.53  E(vib)   ...       0.00 
freq.    1500.85  E(vib)   ...       0.00 
freq.    1504.33  E(vib)   ...       0.00 
freq.    1516.05  E(vib)   ...       0.00 
freq.    1523.57  E(vib)   ...       0.00 
freq.    1530.61  E(vib)   ...       0.00 
freq.    1543.95  E(vib)   ...       0.00 
freq.    1554.01  E(vib)   ...       0.00 
freq.    1562.76  E(vib)   ...       0.00 
freq.    1572.50  E(vib)   ...       0.00 
freq.    1585.37  E(vib)   ...       0.00 
freq.    1614.02  E(vib)   ...       0.00 
freq.    1614.90  E(vib)   ...       0.00 
freq.    1615.91  E(vib)   ...       0.00 
freq.    1617.97  E(vib)   ...       0.00 
freq.    1622.94  E(vib)   ...       0.00 
freq.    1655.07  E(vib)   ...       0.00 
freq.    1656.31  E(vib)   ...       0.00 
freq.    1665.97  E(vib)   ...       0.00 
freq.    1693.59  E(vib)   ...       0.00 
freq.    1717.95  E(vib)   ...       0.00 
freq.    1728.79  E(vib)   ...       0.00 
freq.    1743.68  E(vib)   ...       0.00 
freq.    1761.79  E(vib)   ...       0.00 
freq.    1769.03  E(vib)   ...       0.00 
freq.    1779.96  E(vib)   ...       0.00 
freq.    1787.23  E(vib)   ...       0.00 
freq.    1791.08  E(vib)   ...       0.00 
freq.    1792.53  E(vib)   ...       0.00 
freq.    1818.31  E(vib)   ...       0.00 
freq.    1822.95  E(vib)   ...       0.00 
freq.    1833.01  E(vib)   ...       0.00 
freq.    1834.03  E(vib)   ...       0.00 
freq.    1840.09  E(vib)   ...       0.00 
freq.    1854.25  E(vib)   ...       0.00 
freq.    1858.30  E(vib)   ...       0.00 
freq.    1877.05  E(vib)   ...       0.00 
freq.    2910.94  E(vib)   ...       0.00 
freq.    2914.90  E(vib)   ...       0.00 
freq.    2915.04  E(vib)   ...       0.00 
freq.    2918.68  E(vib)   ...       0.00 
freq.    2919.36  E(vib)   ...       0.00 
freq.    2923.69  E(vib)   ...       0.00 
freq.    2924.36  E(vib)   ...       0.00 
freq.    2924.69  E(vib)   ...       0.00 
freq.    2927.18  E(vib)   ...       0.00 
freq.    2929.96  E(vib)   ...       0.00 
freq.    2931.08  E(vib)   ...       0.00 
freq.    2932.22  E(vib)   ...       0.00 
freq.    2980.56  E(vib)   ...       0.00 
freq.    2983.63  E(vib)   ...       0.00 
freq.    2986.59  E(vib)   ...       0.00 
freq.    2988.55  E(vib)   ...       0.00 
freq.    2990.39  E(vib)   ...       0.00 
freq.    2990.87  E(vib)   ...       0.00 
freq.    2994.70  E(vib)   ...       0.00 
freq.    2994.72  E(vib)   ...       0.00 
freq.    2998.43  E(vib)   ...       0.00 
freq.    3001.75  E(vib)   ...       0.00 
freq.    3004.35  E(vib)   ...       0.00 
freq.    3011.13  E(vib)   ...       0.00 
freq.    3050.74  E(vib)   ...       0.00 
freq.    3067.00  E(vib)   ...       0.00 
freq.    3068.77  E(vib)   ...       0.00 
freq.    3070.40  E(vib)   ...       0.00 
freq.    3073.57  E(vib)   ...       0.00 
freq.    3084.18  E(vib)   ...       0.00 
freq.    3164.74  E(vib)   ...       0.00 
freq.    3183.16  E(vib)   ...       0.00 
freq.    3196.65  E(vib)   ...       0.00 
freq.    3223.24  E(vib)   ...       0.00 
freq.    3227.35  E(vib)   ...       0.00 
freq.    3237.86  E(vib)   ...       0.00 
freq.    3237.90  E(vib)   ...       0.00 
freq.    3254.13  E(vib)   ...       0.00 
freq.    3262.71  E(vib)   ...       0.00 
freq.    3263.54  E(vib)   ...       0.00 
freq.    3292.02  E(vib)   ...       0.00 
freq.    3294.75  E(vib)   ...       0.00 
freq.    3303.40  E(vib)   ...       0.00 
freq.    3303.66  E(vib)   ...       0.00 
freq.    3345.88  E(vib)   ...       0.00 
freq.    3355.06  E(vib)   ...       0.00 
freq.    3357.57  E(vib)   ...       0.00 
freq.    3365.55  E(vib)   ...       0.00 
freq.    3368.12  E(vib)   ...       0.00 
freq.    3371.01  E(vib)   ...       0.00 
freq.    3678.01  E(vib)   ...       0.00 
freq.    3757.28  E(vib)   ...       0.00 

------------
INNER ENERGY
------------

The inner energy is: U= E(el) + E(ZPE) + E(vib) + E(rot) + E(trans)
    E(el)   - is the total energy from the electronic structure calculation
              = E(kin-el) + E(nuc-el) + E(el-el) + E(nuc-nuc)
    E(ZPE)  - the the zero temperature vibrational energy from the frequency calculation
    E(vib)  - the the finite temperature correction to E(ZPE) due to population
              of excited vibrational states
    E(rot)  - is the rotational thermal energy
    E(trans)- is the translational thermal energy

Summary of contributions to the inner energy U:
Electronic energy                ...  -1076.13047777 Eh
Zero point energy                ...      0.88039099 Eh     552.45 kcal/mol
Thermal vibrational correction   ...      0.25891612 Eh     162.47 kcal/mol
Thermal rotational correction    ...      0.00141627 Eh       0.89 kcal/mol
Thermal translational correction ...      0.00141627 Eh       0.89 kcal/mol
-----------------------------------------------------------------------
Total thermal energy                  -1074.98833811 Eh


Summary of corrections to the electronic energy:
(perhaps to be used in another calculation)
Total thermal correction                  0.26174867 Eh     164.25 kcal/mol
Non-thermal (ZPE) correction              0.88039099 Eh     552.45 kcal/mol
-----------------------------------------------------------------------
Total correction                          1.14213966 Eh     716.70 kcal/mol


--------
ENTHALPY
--------

The enthalpy is H = U + kB*T
                kB is Boltzmann's constant
Total thermal energy              ...  -1074.98833811 Eh 
Thermal Enthalpy correction       ...      0.00094421 Eh       0.59 kcal/mol
-----------------------------------------------------------------------
Total Enthalpy                    ...  -1074.98739390 Eh


WARNING (ORCA/SYM): The number of Z matrix atoms does not agree with
the number of centers in the basis set. The point group will therefore
be determined without considering basis set information.


Note: Only C1 symmetry has been detected, increase convergence thresholds 
      if your molecule has a higher symmetry. Symmetry factor of 1.0 is   
      used for the rotational entropy correction. 
 

Note: Rotational entropy computed according to Herzberg 
Infrared and Raman Spectra, Chapter V,1, Van Nostrand Reinhold, 1945 
Point Group:  C1, Symmetry Number:   1  
Rotational constants in cm-1:     0.000495     0.000365     0.000268 

Vibrational entropy computed according to the QRRHO of S. Grimme
Chem.Eur.J. 2012 18 9955 using a reference frequency of 100.0 cm-1


-------
ENTROPY
-------

The entropy contributions are T*S = T*(S(el)+S(vib)+S(rot)+S(trans))
     S(el)   - electronic entropy
     S(vib)  - vibrational entropy
     S(rot)  - rotational entropy
     S(trans)- translational entropy
The entropies will be listed as multiplied by the temperature to get
units of energy

Electronic entropy                ...      0.00000000 Eh      0.00 kcal/mol
Vibrational entropy               ...      0.77409491 Eh    485.75 kcal/mol
Rotational entropy                ...      0.02072389 Eh     13.00 kcal/mol
Translational entropy             ...      0.02253768 Eh     14.14 kcal/mol
-----------------------------------------------------------------------
Final entropy term                ...      0.81735647 Eh    512.90 kcal/mol

In case the symmetry of your molecule has not been determined correctly
or in case you have a reason to use a different symmetry number we print 
out the resulting rotational entropy values for sn=1,12:

 non-linear molecules -----------------------------------
|  sn= 1 | S(rot)=       0.02072389 Eh     13.00 kcal/mol|
|  sn= 2 | S(rot)=       0.02006943 Eh     12.59 kcal/mol|
|  sn= 3 | S(rot)=       0.01968660 Eh     12.35 kcal/mol|
|  sn= 4 | S(rot)=       0.01941497 Eh     12.18 kcal/mol|
|  sn= 5 | S(rot)=       0.01920429 Eh     12.05 kcal/mol|
|  sn= 6 | S(rot)=       0.01903214 Eh     11.94 kcal/mol|
|  sn= 7 | S(rot)=       0.01888660 Eh     11.85 kcal/mol|
|  sn= 8 | S(rot)=       0.01876052 Eh     11.77 kcal/mol|
|  sn= 9 | S(rot)=       0.01864931 Eh     11.70 kcal/mol|
|  sn=10 | S(rot)=       0.01854983 Eh     11.64 kcal/mol|
|  sn=11 | S(rot)=       0.01845984 Eh     11.58 kcal/mol|
|  sn=12 | S(rot)=       0.01837768 Eh     11.53 kcal/mol|
 linear molecules ---------------------------------------
|  Dinfh | S(rot)=       0.01309222 Eh      8.22 kcal/mol|
|  Cinfv | S(rot)=       0.01374667 Eh      8.63 kcal/mol|
 --------------------------------------------------------


-------------------
GIBBS FREE ENERGY
-------------------

The Gibbs free energy is G = H - T*S

Total enthalpy                    ...  -1074.98739390 Eh 
Total entropy correction          ...     -0.81735647 Eh   -512.90 kcal/mol
-----------------------------------------------------------------------
Final Gibbs free energy         ...  -1075.80475037 Eh

For completeness - the Gibbs free energy minus the electronic energy
G-E(el)                           ...      0.32572740 Eh    204.40 kcal/mol



--------------------------------
SUGGESTED CITATIONS FOR THIS RUN
--------------------------------

Below you find a list of papers that are relevant to this ORCA run
We neither can nor want to force you to cite these papers, but we appreciate if you do
You receive ORCA, which is the product of decades of hard work by many enthusiastic individuals, for free
The only thing we kindly ask in return is that you cite our papers,
We deeply appreciate it, if you show your appreciation for ORCA by not just citing the generic ORCA reference.

Please note that relegating all ORCA citations to the supporting information does *not* help us.
SI sections are not indexed - citations you put there will not count into any citation statistics
But we need these citations in order to attract the funding resources that allow us to do what we are doing

Therefore, if you are a happy ORCA user, please consider citing a few of the papers listed below in the main body of your paper

In addition to the list printed below, the program has created the file reactant_freq.bibtex that contains the list in bibtex format
You can import this file easily into all common literature databanks and citation aid programs


List of essential papers. We consider these as the minimum necessary citations

  1. Neese,F.
     Software update: the ORCA program system, version 5.0
     WIRES Comput. Molec. Sci., 2022 12(1)e1606
     doi.org/10.1002/wcms.1606

List of papers to cite with high priority. The work reported in these papers was absolutely
necessary for this run to complete.
Our perspective: the developers of density functionals and basis sets usually get cited in chemistry papers
Good! But without the algorithms to do something with them, the functionals or basis sets would not do anything.
Hence, in our opinion, the algorithm design and method developments papers are equally worthy of getting cited

  1. Neese,F.
     An improvement of the resolution of the identity approximation for the formation of the Coulomb matrix
     J. Comp. Chem., 2003 24(14)1740-1747
     doi.org/10.1002/jcc.10318
  2. Neese,F.; Wennmohs,F.; Hansen,A.; Becker,U.
     Efficient, approximate and parallel Hartree-Fock and hybrid DFT calculations. A 'chain-of-spheres' algorithm for the Hartree-Fock exchange
     Chem. Phys., 2009 356(1-3)98-109
     doi.org/10.1016/j.chemphys.2008.10.036
  3. Bykov,D.; Petrenko,T.; Izsak,R.; Kossmann,S.; Becker,U.; Valeev,E.; Neese,F.
     Efficient implementation of the analytic second derivatives of Hartree-Fock and hybrid DFT energies: a detailed analysis of different approximations
     Molec. Phys., 2015 113 1961-1977
     doi.org/10.1080/00268976.2015.1025114
  4. Helmich-Paris,B.; de Souza,B.; Neese,F.; Izsák,R.
     An improved chain of spheres for exchange algorithm
     J. Chem. Phys., 2021 155 104109
     doi.org/doi: 10.1063/5.0058766.
  5. Neese,F.
     The SHARK Integral Generation and Digestion System
     J. Comp. Chem., 2022  1-16
     doi.org/10.1002/jcc.26942
  6. Grimme,S.; Antony,J.; Ehrlich,S.; Krieg,H.
     A consistent and accurate ab initio parametrization of density functional dispersion correction (DFT-D) for the 94 elements H-Pu
     J. Chem. Phys., 2010 132 154104
     doi.org/10.1063/1.3382344
  7. Grimme,S.; Ehrlich,S.; Goerigk,L.
     Effect of the damping function in dispersion corrected density functional theory
     J. Comput. Chem., 2011 32(7)1456-1465
     doi.org/10.1002/jcc.21759

List of suggested additional citations. These are papers that are important in the 'surrounding' of 
of this run, or papers that preceded the highly important papers. If you like your results we are grateful for a citation.

  1. Izsak,R.; Neese,F.
     An overlap fitted chain of spheres exchange method
     J. Chem. Phys., 2011 135 144105
     doi.org/10.1063/1.3646921
  2. Izsak,R.; Hansen,A.; Neese,F.
     The resolution of identity and chain of spheres approximations for the LPNO-CCSD singles Fock term
     Molec. Phys., 2012 110 2413-2417
     doi.org/10.1080/00268976.2012.687466
  3. Neese,F.
     The ORCA program system
     WIRES Comput. Molec. Sci., 2012 2(1)73-78
     doi.org/10.1002/wcms.81
  4. Izsak,R.; Neese,F.; Klopper,W.
     Robust fitting techniques in the chain of spheres approximation to the Fock exchange: The role of the complementary space
     J. Chem. Phys., 2013 139 
     doi.org/10.1063/1.4819264
  5. Neese,F.
     Software update: the ORCA program system, version 4.0
     WIRES Comput. Molec. Sci., 2018 8(1)1-6
     doi.org/10.1002/wcms.1327
  6. Neese,F.; Wennmohs,F.; Becker,U.; Riplinger,C.
     The ORCA quantum chemistry program package
     J. Chem. Phys., 2020 152 Art. No. L224108
     doi.org/10.1063/5.0004608

List of optional additional citations

  1. Neese,F.
     Approximate second-order SCF convergence for spin unrestricted wavefunctions
     Chem. Phys. Lett., 2000 325(1-3)93-98
     doi.org/10.1016/s0009-2614(00)00662-x

Timings for individual modules:

Sum of individual times          ...    37735.793 sec (= 628.930 min)
Startup calculation              ...       35.587 sec (=   0.593 min)   0.1 %
SCF iterations                   ...      205.599 sec (=   3.427 min)   0.5 %
Property calculations            ...        2.734 sec (=   0.046 min)   0.0 %
SCF Gradient evaluation          ...       80.138 sec (=   1.336 min)   0.2 %
Numerical frequency calculation  ...    37395.081 sec (= 623.251 min)  99.1 %
MM module                        ...       16.654 sec (=   0.278 min)   0.0 %
                             ****ORCA TERMINATED NORMALLY****
TOTAL RUN TIME: 0 days 10 hours 26 minutes 42 seconds 43 msec
