
                                 *****************
                                 * O   R   C   A *
                                 *****************

                                            #,                                       
                                            ###                                      
                                            ####                                     
                                            #####                                    
                                            ######                                   
                                           ########,                                 
                                     ,,################,,,,,                         
                               ,,#################################,,                 
                          ,,##########################################,,             
                       ,#########################################, ''#####,          
                    ,#############################################,,   '####,        
                  ,##################################################,,,,####,       
                ,###########''''           ''''###############################       
              ,#####''   ,,,,##########,,,,          '''####'''          '####       
            ,##' ,,,,###########################,,,                        '##       
           ' ,,###''''                  '''############,,,                           
         ,,##''                                '''############,,,,        ,,,,,,###''
      ,#''                                            '''#######################'''  
     '                                                          ''''####''''         
             ,#######,   #######,   ,#######,      ##                                
            ,#'     '#,  ##    ##  ,#'     '#,    #''#        ,####,   ,####,        
            ##       ##  ##   ,#'  ##            #'  '#       #'       #'  '#        
            ##       ##  #######   ##           ,######,      #####,   #    #        
            '#,     ,#'  ##    ##  '#,     ,#' ,#      #,     #,   #   #,  ,#        
             '#######'   ##     ##  '#######'  #'      '#     '####' # '####'        



                #########################################################
                #                        -***-                          #
                #          Department of theory and spectroscopy        #
                #                                                       #
                #                      Frank Neese                      #
                #                                                       #
                #     Directorship, Architecture, Infrastructure        #
                #                    SHARK, DRIVERS                     #
                #        Core code/Algorithms in most modules           #
                #                                                       #
                #        Max Planck Institute fuer Kohlenforschung      #
                #                Kaiser Wilhelm Platz 1                 #
                #                 D-45470 Muelheim/Ruhr                 #
                #                      Germany                          #
                #                                                       #
                #                  All rights reserved                  #
                #                        -***-                          #
                #########################################################


                         Program Version 6.0.1  -  RELEASE   -


 With contributions from (in alphabetic order):
[Max-Planck-Institut fuer Kohlenforschung]                               
  Daniel Aravena         : Magnetic Suceptibility                        
  Michael Atanasov       : Ab Initio Ligand Field Theory (pilot matlab implementation)
  Alexander A. Auer      : GIAO ZORA, VPT2 properties, NMR spectrum      
  Ute Becker             : All parallelization in ORCA, NUMFREQ, NUMCALC 
  Giovanni Bistoni       : ED, misc. LED, open-shell LED, HFLD           
  Martin Brehm           : Molecular dynamics                            
  Dmytro Bykov           : pre 5.0 version of the SCF Hessian            
  Marcos Casanova-Páez   : Triplet and SCS-CIS(D). UHF-(DLPNO)-IP/EA/STEOM-CCSD. UHF-CVS-IP/STEOM-CCSD   
  Vijay G. Chilkuri      : MRCI spin determinant printing, contributions to CSF-ICE 
  Pauline Colinet        : FMM embedding                                 
  Dipayan Datta          : RHF DLPNO-CCSD density                        
  Achintya Kumar Dutta   : EOM-CC, STEOM-CC                              
  Nicolas Foglia         : Exact transition moments, OPA infrastructure, MCD improvements    
  Dmitry Ganyushin       : Spin-Orbit,Spin-Spin,Magnetic field MRCI      
  Miquel Garcia-Rates    : C-PCM and meta-GGA Hessian, CCSD/C-PCM, Gaussian charge scheme 
  Tiago L. C. Gouveia    : GS-ROHF, GS-ROCIS                             
  Yang Guo               : DLPNO-NEVPT2, F12-NEVPT2, CIM, IAO-localization        
  Andreas Hansen         : Spin unrestricted coupled pair/coupled cluster methods 
  Ingolf Harden          : AUTO-CI MPn and infrastructure                
  Benjamin Helmich-Paris : MC-RPA, TRAH-(SCF,CASSCF), AVAS, COSX integrals, SCF dyn. polar. 
  Lee Huntington         : MR-EOM, pCC                                   
  Robert Izsak           : Overlap fitted RIJCOSX, COSX-SCS-MP3, EOM     
  Riya Kayal             : Wick's Theorem for AUTO-CI, AUTO-CI UHF-CCSDT 
  Emily Kempfer          : AUTO-CI, RHF CISDT and CCSDT                  
  Christian Kollmar      : KDIIS, OOCD, Brueckner-CCSD(T), CCSD density, CASPT2, CASPT2-K, improved NEVPT2 
  Axel Koslowski         : Symmetry handling                             
  Simone Kossmann        : meta-GGA functionals, TD-DFT gradient, OOMP2, (MP2 Hessian; deprecated post 5.0) 
  Lucas Lang             : DCDCAS                                        
  Marvin Lechner         : AUTO-CI (C++ implementation), FIC-MRCC        
  Spencer Leger          : CASSCF response                               
  Dagmar Lenk            : GEPOL surface, SMD, ORCA-2-JSON               
  Dimitrios Liakos       : Extrapolation schemes; Compound Job, initial MDCI parallelization 
  Dimitrios Manganas     : Further ROCIS development; embedding schemes. LFT, Crystal Embedding 
  Dimitrios Pantazis     : SARC Basis sets                               
  Anastasios Papadopoulos: AUTO-CI, single reference methods and gradients 
  Taras Petrenko         : pre 6.0 DFT Hessian and TD-DFT gradient, (ASA, deprecated), ECA, 1-Electron XAS/XES, NRVS 
  Peter Pinski           : DLPNO-MP2, DLPNO-MP2 Gradient                 
  Christoph Reimann      : Effective Core Potentials                     
  Marius Retegan         : Local ZFS, SOC                                
  Christoph Riplinger    : Optimizer, TS searches, QM/MM, DLPNO-CCSD(T), (RO)-DLPNO pert. Triples 
  Michael Roemelt        : Original ROCIS implementation                 
  Masaaki Saitow         : Open-shell DLPNO-CCSD energy and density      
  Barbara Sandhoefer     : DKH picture change effects                    
  Kantharuban Sivalingam : CASSCF convergence/infrastructure, NEVPT2 and variants, FIC-MRCI 
  Bernardo de Souza      : ESD, SOC TD-DFT                               
  Georgi L. Stoychev     : AutoAux, RI-MP2 NMR, DLPNO-MP2 response, X2C  
  Van Anh Tran           : RI-MP2 g-tensors                              
  Willem Van den Heuvel  : Paramagnetic NMR                              
  Zikuan Wang            : NOTCH, Electric field optimization            
  Frank Wennmohs         : Technical directorship and infrastructure     
  Hang Xu                : AUTO-CI-Response properties                   
                                                                         
[FACCTs GmbH]                                                            
  Markus Bursch, Miquel Garcia-Rates, Christoph Riplinger, Bernardo de Souza, Georgi L. Stoychev 
                                                                 
  APM, Basis sets (HGBS, AHGBS, def-TZVP (Ac-Lr), def2-XVPD (La-Lu)), CI-OPT, improved COSX, DLPNO-Multilevel,           
  DOCKER, DRACO, updates on ESD, GOAT, IRC, LR-CPCM, MBIS, meta-GGA TD-DFT gradient, ML-optimized integration grids, 
  MM, NACMEs, nearIR, NEB, NEB-TS, NL-DFT gradient (VV10), 2- and 3-layer-ONIOM, interface openCOSMO-RS, QMMM,   
  Crystal-QMMM, SF, symmetry and pop. for TD-DFT, r2SCAN hybrids, SOLVATOR                                   
                                                                         
[Other institutions]                                                     
  V. Asgeirsson          : NEB                                           
  Christoph Bannwarth    : sTDA-DFT, sTD-DFT, PBEh-3c, B97-3c, D3        
  Sebastian Ehlert       : rSCAN, r2SCAN, r2SCAN-3c, D4, dhf basis sets  
  Marvin Friede          : D4 for Fr, Ra, Ac-Lr                          
  Lars Goerigk           : TD-DFT with DH, B97 family of functionals     
  Stefan Grimme          : VdW corrections, initial TS optimization, DFT functionals, gCP, sTDA/sTD-DF 
  Waldemar Hujo          : DFT-NL                                        
  H. Jonsson             : NEB                                           
  Holger Kruse           : gCP                                           
  Marcel Mueller         : wB97X-3c, vDZP basis set                      
  Hagen Neugebauer       : wr2SCAN                                       
  Tobias Risthaus        : range-separated hybrid DFT                    
  Lukas Wittmann         : regularized MP2, r2SCAN double-hybrids, wr2SCAN        
                                                                         
We gratefully acknowledge several colleagues who have allowed us to      
interface, adapt or use parts of their codes:                            
  Ed Valeev, F. Pavosevic, A. Kumar             : LibInt (2-el integral package), F12 methods 
  Garnet Chan, S. Sharma, J. Yang, R. Olivares  : DMRG                   
  Ulf Ekstrom                                   : XCFun DFT Library      
  Mihaly Kallay                                 : mrcc  (arbitrary order and MRCC methods)
  Frank Weinhold                                : gennbo (NPA and NBO analysis)           
  Simon Mueller                                 : openCOSMO-RS                            
  Christopher J. Cramer and Donald G. Truhlar   : smd solvation model                     
  S Lehtola, MJT Oliveira, MAL Marques          : LibXC Library                           
  Liviu Ungur et al                             : ANISO software                          


 Your calculation uses the libint2 library for the computation of 2-el integrals
 For citations please refer to: http://libint.valeyev.net

 Your ORCA version has been built with support for libXC version: 6.2.2
 For citations please refer to: https://libxc.gitlab.io

 This ORCA versions uses:
   CBLAS   interface :  Fast vector & matrix operations
   LAPACKE interface :  Fast linear algebra routines
   SCALAPACK package :  Parallel linear algebra routines
   Shared memory     :  Shared parallel matrices
   BLAS/LAPACK       :  OpenBLAS 0.3.27  USE64BITINT DYNAMIC_ARCH NO_AFFINITY SkylakeX SINGLE_THREADED
        Core in use  :  SkylakeX
   Copyright (c) 2011-2014, The OpenBLAS Project


NOTE: MaxCore=3000 MB was set to SCF,MP2,MDCI,CIPSI,MRCI and CIS
      => If you want to overwrite this, your respective input block should be placed after the MaxCore statement


***************************************
The coordinates will be read from file: reactant_reduced_start.pdb
***************************************


Your calculation utilizes the atom-pairwise dispersion correction
with the Becke-Johnson damping scheme (D3BJ)


================================================================================

----- Orbital basis set information -----
Your calculation utilizes the basis: def2-SVP
   F. Weigend and R. Ahlrichs, Phys. Chem. Chem. Phys. 7, 3297 (2005).

----- AuxJ basis set information -----
Your calculation utilizes the auxiliary basis: def2/J
   F. Weigend, Phys. Chem. Chem. Phys. 8, 1057 (2006).

================================================================================
                                        WARNINGS
                       Please study these warnings very carefully!
================================================================================


WARNING: Geometry Optimization
  ===> : Switching off AutoStart
         For restart on a previous wavefunction, please use MOREAD

================================================================================
                                       INPUT FILE
================================================================================
NAME = reactant_reduced.inp
|  1> ! QMMM B3LYP D3BJ def2-SVP def2/J RIJCOSX Opt TightSCF
|  2> %maxcore 3000
|  3> %pal nprocs 8 end
|  4> %scf MaxIter 250 end
|  5> %geom MaxIter 500 end
|  6> %qmmm
|  7>  QMAtoms {6207:6230} end
|  8>  ActiveAtoms {1006 1007 1008 1009 1010 1011 1012 1013 1014 1015 1016 1017 1018 1019 1020 1021 1022 1023 2170 2171 2172 2173 2174 2175 2176 2177 2178 2179 2180 2181 2182 2183 2184 2185 2186 2187 3310 3311 3312 3313 3314 3315 3316 3317 3318 3491 3492 3493 3494 3495 3496 3497 3498 3499 3500 3501 3502 3503 3504 3505 3506 3507 3508 3790 3791 3792 3793 3794 3795 3796 3797 3798 3799 3800 3801 3802 3803 3804 6207 6208 6209 6210 6211 6212 6213 6214 6215 6216 6217 6218 6219 6220 6221 6222 6223 6224 6225 6226 6227 6228 6229 6230} end
|  9>  ORCAFFFilename "complex_solvated.ORCAFF.prms"
| 10> end
| 11> *pdbfile -2 1 reactant_reduced_start.pdb
| 12> 
| 13>                          ****END OF INPUT****
================================================================================

------------------------------------------------------------------------------

                             **************************
                             *           QMMM         *
                             **************************


------------------------------------------------------------------------------




Multiscale model                       ... QM/MM
Coupling Scheme                        ... additive
Embedding Scheme                       ... electrostatic
PrintLevel                             ... 1
Charge alteration scheme               ... Charge shifting
Scaling factor for CS scheme           ... 0.06
Gradient projection scheme             ... Lever rule
Point charges in QM calc. from MM atoms... 55656
              from charge shift scheme ... 0
Printing trajectories, xyz and allxyz files:
        QMMMRegion                     ... YES
        activeRegion                   ... YES
        activeRegionExt                ... NO
        qmRegion                       ... YES
Parameter files:
        ORCA Forcefield Filename       ... complex_solvated.ORCAFF.prms
        QM-LA bond distances Filename  ... reactant_reduced.H_DIST.prms.tmp
Forcefield type                        ... AMBER
Size of different subsystems (in atoms):
Size of QMMM System                    ... 55680
Size of MM Subsystem                   ... 55656
Size of QM Subsystem                   ... 24
Number of link atoms                   ... 0
Size of QM Subsystem plus link atoms   ... 24
Size of region for optimizer           ... 184
        optimized atoms = activeRegion ... 102
        fixed atoms (distance cutoff)  ... 82 ( 0.0)
Composition of different systems (atoms start counting at 0):
QM Subsystem                           ... 6207 6208 6209 6210 6211 6212 6213 6214 6215 6216 
                                           6217 6218 6219 6220 6221 6222 6223 6224 6225 6226 
                                           6227 6228 6229 6230 
Active atoms                           ... 1006 1007 1008 1009 1010 1011 1012 1013 1014 1015 
                                           1016 1017 1018 1019 1020 1021 1022 1023 2170 2171 
                                           2172 2173 2174 2175 2176 2177 2178 2179 2180 2181 
                                           2182 2183 2184 2185 2186 2187 3310 3311 3312 3313 
                                           3314 3315 3316 3317 3318 3491 3492 3493 3494 3495 
                                           3496 3497 3498 3499 3500 3501 3502 3503 3504 3505 
                                           3506 3507 3508 3790 3791 3792 3793 3794 3795 3796 
                                           3797 3798 3799 3800 3801 3802 3803 3804 6207 6208 
                                           6209 6210 6211 6212 6213 6214 6215 6216 6217 6218 
                                           6219 6220 6221 6222 6223 6224 6225 6226 6227 6228 
                                           6229 6230 
Fixed atoms used in optimizer          ... 921 926 948 949 951 954 957 1002 1003 1004 
                                           1005 1024 1025 1105 1185 1191 1201 1207 1208 2166 
                                           2167 2168 2169 2188 2190 2191 2195 2196 2203 2204 
                                           2853 2854 2855 2866 2871 3306 3307 3308 3309 3319 
                                           3321 3322 3329 3337 3487 3488 3489 3490 3509 3510 
                                           3526 3530 3539 3784 3786 3787 3788 3789 3805 3806 
                                           3872 3910 3911 3936 7137 7138 7500 11454 11455 11456 
                                           11928 11930 15171 20628 20670 20671 22539 31673 47610 47611 
                                           47612 48879 
Constrain bonds and angle of MM waters ... NO

                       *****************************
                       * Geometry Optimization Run *
                       *****************************

Geometry optimization settings:
Update method            Update   .... BFGS
Choice of coordinates    CoordSys .... (2022) Redundant Internals
Initial Hessian          InHess   .... Almloef's Model
Max. no of cycles        MaxIter  .... 500

Convergence Tolerances:
Energy Change            TolE     ....  5.0000e-06 Eh
Max. Gradient            TolMAXG  ....  3.0000e-04 Eh/bohr
RMS Gradient             TolRMSG  ....  1.0000e-04 Eh/bohr
Max. Displacement        TolMAXD  ....  4.0000e-03 bohr
RMS Displacement         TolRMSD  ....  2.0000e-03 bohr
Strict Convergence                .... False

------------------------------------------------------------------------------
                        ORCA OPTIMIZATION COORDINATE SETUP
------------------------------------------------------------------------------

The optimization will be done in redundant internal coordinates (2022)
Making redundant internal coordinates   ...  (2022 redundants) done
Evaluating the initial hessian          ...  (Almloef) done
Evaluating the coordinates              ...  done
Calculating the B-matrix                .... done
Calculating the G-matrix                .... done
Diagonalizing the G-matrix              .... done
Will constrain atom 0 coordinate 1 
Will constrain atom 0 coordinate 2 
Will constrain atom 0 coordinate 3 
Will constrain atom 1 coordinate 1 
Will constrain atom 1 coordinate 2 
Will constrain atom 1 coordinate 3 
Will constrain atom 2 coordinate 1 
Will constrain atom 2 coordinate 2 
Will constrain atom 2 coordinate 3 
Will constrain atom 3 coordinate 1 
Will constrain atom 3 coordinate 2 
Will constrain atom 3 coordinate 3 
Will constrain atom 4 coordinate 1 
Will constrain atom 4 coordinate 2 
Will constrain atom 4 coordinate 3 
Will constrain atom 5 coordinate 1 
Will constrain atom 5 coordinate 2 
Will constrain atom 5 coordinate 3 
Will constrain atom 6 coordinate 1 
Will constrain atom 6 coordinate 2 
Will constrain atom 6 coordinate 3 
Will constrain atom 7 coordinate 1 
Will constrain atom 7 coordinate 2 
Will constrain atom 7 coordinate 3 
Will constrain atom 8 coordinate 1 
Will constrain atom 8 coordinate 2 
Will constrain atom 8 coordinate 3 
Will constrain atom 9 coordinate 1 
Will constrain atom 9 coordinate 2 
Will constrain atom 9 coordinate 3 
Will constrain atom 10 coordinate 1 
Will constrain atom 10 coordinate 2 
Will constrain atom 10 coordinate 3 
Will constrain atom 29 coordinate 1 
Will constrain atom 29 coordinate 2 
Will constrain atom 29 coordinate 3 
Will constrain atom 30 coordinate 1 
Will constrain atom 30 coordinate 2 
Will constrain atom 30 coordinate 3 
Will constrain atom 31 coordinate 1 
Will constrain atom 31 coordinate 2 
Will constrain atom 31 coordinate 3 
Will constrain atom 32 coordinate 1 
Will constrain atom 32 coordinate 2 
Will constrain atom 32 coordinate 3 
Will constrain atom 33 coordinate 1 
Will constrain atom 33 coordinate 2 
Will constrain atom 33 coordinate 3 
Will constrain atom 34 coordinate 1 
Will constrain atom 34 coordinate 2 
Will constrain atom 34 coordinate 3 
Will constrain atom 35 coordinate 1 
Will constrain atom 35 coordinate 2 
Will constrain atom 35 coordinate 3 
Will constrain atom 36 coordinate 1 
Will constrain atom 36 coordinate 2 
Will constrain atom 36 coordinate 3 
Will constrain atom 37 coordinate 1 
Will constrain atom 37 coordinate 2 
Will constrain atom 37 coordinate 3 
Will constrain atom 38 coordinate 1 
Will constrain atom 38 coordinate 2 
Will constrain atom 38 coordinate 3 
Will constrain atom 39 coordinate 1 
Will constrain atom 39 coordinate 2 
Will constrain atom 39 coordinate 3 
Will constrain atom 40 coordinate 1 
Will constrain atom 40 coordinate 2 
Will constrain atom 40 coordinate 3 
Will constrain atom 59 coordinate 1 
Will constrain atom 59 coordinate 2 
Will constrain atom 59 coordinate 3 
Will constrain atom 60 coordinate 1 
Will constrain atom 60 coordinate 2 
Will constrain atom 60 coordinate 3 
Will constrain atom 61 coordinate 1 
Will constrain atom 61 coordinate 2 
Will constrain atom 61 coordinate 3 
Will constrain atom 62 coordinate 1 
Will constrain atom 62 coordinate 2 
Will constrain atom 62 coordinate 3 
Will constrain atom 63 coordinate 1 
Will constrain atom 63 coordinate 2 
Will constrain atom 63 coordinate 3 
Will constrain atom 64 coordinate 1 
Will constrain atom 64 coordinate 2 
Will constrain atom 64 coordinate 3 
Will constrain atom 65 coordinate 1 
Will constrain atom 65 coordinate 2 
Will constrain atom 65 coordinate 3 
Will constrain atom 66 coordinate 1 
Will constrain atom 66 coordinate 2 
Will constrain atom 66 coordinate 3 
Will constrain atom 67 coordinate 1 
Will constrain atom 67 coordinate 2 
Will constrain atom 67 coordinate 3 
Will constrain atom 68 coordinate 1 
Will constrain atom 68 coordinate 2 
Will constrain atom 68 coordinate 3 
Will constrain atom 69 coordinate 1 
Will constrain atom 69 coordinate 2 
Will constrain atom 69 coordinate 3 
Will constrain atom 70 coordinate 1 
Will constrain atom 70 coordinate 2 
Will constrain atom 70 coordinate 3 
Will constrain atom 71 coordinate 1 
Will constrain atom 71 coordinate 2 
Will constrain atom 71 coordinate 3 
Will constrain atom 72 coordinate 1 
Will constrain atom 72 coordinate 2 
Will constrain atom 72 coordinate 3 
Will constrain atom 73 coordinate 1 
Will constrain atom 73 coordinate 2 
Will constrain atom 73 coordinate 3 
Will constrain atom 74 coordinate 1 
Will constrain atom 74 coordinate 2 
Will constrain atom 74 coordinate 3 
Will constrain atom 84 coordinate 1 
Will constrain atom 84 coordinate 2 
Will constrain atom 84 coordinate 3 
Will constrain atom 85 coordinate 1 
Will constrain atom 85 coordinate 2 
Will constrain atom 85 coordinate 3 
Will constrain atom 86 coordinate 1 
Will constrain atom 86 coordinate 2 
Will constrain atom 86 coordinate 3 
Will constrain atom 87 coordinate 1 
Will constrain atom 87 coordinate 2 
Will constrain atom 87 coordinate 3 
Will constrain atom 88 coordinate 1 
Will constrain atom 88 coordinate 2 
Will constrain atom 88 coordinate 3 
Will constrain atom 89 coordinate 1 
Will constrain atom 89 coordinate 2 
Will constrain atom 89 coordinate 3 
Will constrain atom 90 coordinate 1 
Will constrain atom 90 coordinate 2 
Will constrain atom 90 coordinate 3 
Will constrain atom 91 coordinate 1 
Will constrain atom 91 coordinate 2 
Will constrain atom 91 coordinate 3 
Will constrain atom 92 coordinate 1 
Will constrain atom 92 coordinate 2 
Will constrain atom 92 coordinate 3 
Will constrain atom 111 coordinate 1 
Will constrain atom 111 coordinate 2 
Will constrain atom 111 coordinate 3 
Will constrain atom 112 coordinate 1 
Will constrain atom 112 coordinate 2 
Will constrain atom 112 coordinate 3 
Will constrain atom 113 coordinate 1 
Will constrain atom 113 coordinate 2 
Will constrain atom 113 coordinate 3 
Will constrain atom 114 coordinate 1 
Will constrain atom 114 coordinate 2 
Will constrain atom 114 coordinate 3 
Will constrain atom 115 coordinate 1 
Will constrain atom 115 coordinate 2 
Will constrain atom 115 coordinate 3 
Will constrain atom 116 coordinate 1 
Will constrain atom 116 coordinate 2 
Will constrain atom 116 coordinate 3 
Will constrain atom 117 coordinate 1 
Will constrain atom 117 coordinate 2 
Will constrain atom 117 coordinate 3 
Will constrain atom 118 coordinate 1 
Will constrain atom 118 coordinate 2 
Will constrain atom 118 coordinate 3 
Will constrain atom 119 coordinate 1 
Will constrain atom 119 coordinate 2 
Will constrain atom 119 coordinate 3 
Will constrain atom 120 coordinate 1 
Will constrain atom 120 coordinate 2 
Will constrain atom 120 coordinate 3 
Will constrain atom 136 coordinate 1 
Will constrain atom 136 coordinate 2 
Will constrain atom 136 coordinate 3 
Will constrain atom 137 coordinate 1 
Will constrain atom 137 coordinate 2 
Will constrain atom 137 coordinate 3 
Will constrain atom 138 coordinate 1 
Will constrain atom 138 coordinate 2 
Will constrain atom 138 coordinate 3 
Will constrain atom 139 coordinate 1 
Will constrain atom 139 coordinate 2 
Will constrain atom 139 coordinate 3 
Will constrain atom 140 coordinate 1 
Will constrain atom 140 coordinate 2 
Will constrain atom 140 coordinate 3 
Will constrain atom 141 coordinate 1 
Will constrain atom 141 coordinate 2 
Will constrain atom 141 coordinate 3 
Will constrain atom 166 coordinate 1 
Will constrain atom 166 coordinate 2 
Will constrain atom 166 coordinate 3 
Will constrain atom 167 coordinate 1 
Will constrain atom 167 coordinate 2 
Will constrain atom 167 coordinate 3 
Will constrain atom 168 coordinate 1 
Will constrain atom 168 coordinate 2 
Will constrain atom 168 coordinate 3 
Will constrain atom 169 coordinate 1 
Will constrain atom 169 coordinate 2 
Will constrain atom 169 coordinate 3 
Will constrain atom 170 coordinate 1 
Will constrain atom 170 coordinate 2 
Will constrain atom 170 coordinate 3 
Will constrain atom 171 coordinate 1 
Will constrain atom 171 coordinate 2 
Will constrain atom 171 coordinate 3 
Will constrain atom 172 coordinate 1 
Will constrain atom 172 coordinate 2 
Will constrain atom 172 coordinate 3 
Will constrain atom 173 coordinate 1 
Will constrain atom 173 coordinate 2 
Will constrain atom 173 coordinate 3 
Will constrain atom 174 coordinate 1 
Will constrain atom 174 coordinate 2 
Will constrain atom 174 coordinate 3 
Will constrain atom 175 coordinate 1 
Will constrain atom 175 coordinate 2 
Will constrain atom 175 coordinate 3 
Will constrain atom 176 coordinate 1 
Will constrain atom 176 coordinate 2 
Will constrain atom 176 coordinate 3 
Will constrain atom 177 coordinate 1 
Will constrain atom 177 coordinate 2 
Will constrain atom 177 coordinate 3 
Will constrain atom 178 coordinate 1 
Will constrain atom 178 coordinate 2 
Will constrain atom 178 coordinate 3 
Will constrain atom 179 coordinate 1 
Will constrain atom 179 coordinate 2 
Will constrain atom 179 coordinate 3 
Will constrain atom 180 coordinate 1 
Will constrain atom 180 coordinate 2 
Will constrain atom 180 coordinate 3 
Will constrain atom 181 coordinate 1 
Will constrain atom 181 coordinate 2 
Will constrain atom 181 coordinate 3 
Will constrain atom 182 coordinate 1 
Will constrain atom 182 coordinate 2 
Will constrain atom 182 coordinate 3 
Will constrain atom 183 coordinate 1 
Will constrain atom 183 coordinate 2 
Will constrain atom 183 coordinate 3 
The first mode is                       .... 1023
The number of degrees of freedom        ....  552
Storing new coordinates                 .... done

    -----------------------------------------------------------------
                    Redundant Internal Coordinates


    -----------------------------------------------------------------
         Definition                    Initial Value    Approx d2E/dq
    -----------------------------------------------------------------
      1. B(H   3,C   2)                  1.0901         0.359984   
      2. B(H   4,C   2)                  1.0909         0.358977   
      3. B(H   6,N   5)                  2.0825         0.008417   
      4. B(H   8,N   7)                  1.0122         0.429244   
      5. B(C   9,N   7)                  1.4754         0.408872   
      6. B(H  10,C   9)                  1.0916         0.357990   
      7. B(C  11,C   9)                  1.5605         0.333967   
      8. B(H  12,C  11)                  1.0919         0.357588   
      9. B(H  13,C  11)                  1.0902         0.359840   
     10. B(C  14,C  11)                  1.5402         0.359852   
     11. B(H  15,C  14)                  1.0901         0.359950   
     12. B(H  16,C  14)                  1.0892         0.361135   
     13. B(C  17,C  14)                  1.5368         0.364308   
     14. B(H  18,C  17)                  1.0895         0.360813   
     15. B(H  19,C  17)                  1.0906         0.359290   
     16. B(N  20,H   6)                  3.4466         0.000056   
     17. B(N  20,C  17)                  1.4760         0.407989   
     18. B(N  20,H  18)                  2.1085         0.007648   
     19. B(H  21,N  20)                  1.0077         0.436442   
     20. B(C  22,H   6)                  2.7077         0.000945   
     21. B(C  22,N  20)                  1.3235         0.714533   
     22. B(N  23,H   6)                  2.8337         0.000533   
     23. B(N  23,C  22)                  1.3007         0.776907   
     24. B(H  24,H   6)                  2.8216         0.000119   
     25. B(H  24,N  23)                  1.0188         0.418970   
     26. B(H  25,N  23)                  1.0174         0.421093   
     27. B(N  26,C  22)                  1.2990         0.781753   
     28. B(N  26,H   6)                  2.6557         0.001025   
     29. B(H  27,N  26)                  1.0235         0.411827   
     30. B(H  27,H   6)                  2.6927         0.000191   
     31. B(H  28,N  26)                  1.0118         0.429817   
     32. B(H  28,H   6)                  3.3343         0.000018   
     33. B(C  29,C   9)                  1.5369         0.364197   
     34. B(O  30,C  29)                  1.2308         1.004252   
     35. B(H  31,H  15)                  2.3613         0.000646   
     36. B(H  33,O  32)                  2.7382         0.000757   
     37. B(H  36,H  34)                  2.2179         0.001094   
     38. B(H  36,S  35)                  1.3463         0.378708   
     39. B(H  38,N  37)                  1.0173         0.421331   
     40. B(C  39,N  37)                  1.4655         0.424074   
     41. B(H  40,C  39)                  1.0888         0.361757   
     42. B(C  41,C  39)                  1.5361         0.365313   
     43. B(H  42,C  41)                  1.0925         0.356852   
     44. B(H  43,C  41)                  1.0913         0.358444   
     45. B(C  44,C  41)                  1.5382         0.362548   
     46. B(H  45,C  44)                  1.0900         0.360041   
     47. B(H  46,C  44)                  1.0862         0.365212   
     48. B(C  47,C  44)                  1.5387         0.361851   
     49. B(H  48,C  47)                  1.0895         0.360697   
     50. B(H  49,C  47)                  1.0878         0.363024   
     51. B(H  49,H  33)                  2.2256         0.001063   
     52. B(N  50,C  47)                  1.4757         0.408415   
     53. B(H  51,N  50)                  1.0102         0.432448   
     54. B(C  52,N  50)                  1.3223         0.717507   
     55. B(N  53,C  52)                  1.2975         0.785932   
     56. B(H  54,N  53)                  1.0157         0.423806   
     57. B(H  55,N  53)                  1.0155         0.424014   
     58. B(H  55,O  32)                  1.8646         0.018736   
     59. B(N  56,H  51)                  2.4528         0.002159   
     60. B(N  56,C  52)                  1.2974         0.786323   
     61. B(H  57,N  56)                  1.0222         0.413697   
     62. B(H  58,N  56)                  1.0084         0.435297   
     63. B(C  59,C  39)                  1.5281         0.376199   
     64. B(N  60,C  59)                  1.3285         0.701352   
     65. B(H  61,N  60)                  1.0084         0.435324   
     66. B(O  63,H  58)                  1.8478         0.019928   
     67. B(O  63,C  62)                  1.2395         0.972829   
     68. B(O  63,H  61)                  2.3102         0.003646   
     69. B(H  64,C  62)                  2.8957         0.000474   
     70. B(H  64,H  58)                  2.5530         0.000319   
     71. B(H  64,O  63)                  2.6595         0.001011   
     72. B(H  64,H  57)                  2.9154         0.000084   
     73. B(H  65,H  64)                  1.7668         0.005738   
     74. B(O  67,H  66)                  2.0374         0.009934   
     75. B(H  68,H  66)                  2.1094         0.001629   
     76. B(H  68,O  67)                  0.9857         0.473027   
     77. B(C  69,H   6)                 18.8806         0.000000   
     78. B(H  70,C  69)                  2.7129         0.000927   
     79. B(H  72,N  71)                  1.0145         0.425596   
     80. B(H  72,C  69)                  2.9216         0.000431   
     81. B(C  73,N  71)                  1.4681         0.420017   
     82. B(H  74,C  73)                  1.0914         0.358306   
     83. B(C  75,C  73)                  1.5589         0.335898   
     84. B(H  76,C  75)                  1.0904         0.359537   
     85. B(H  76,C  69)                  2.8920         0.000480   
     86. B(H  77,C  75)                  1.0883         0.362349   
     87. B(H  77,H  70)                  2.1147         0.001598   
     88. B(H  77,C  69)                  3.3607         0.000086   
     89. B(C  78,C  75)                  1.5340         0.368063   
     90. B(H  79,C  78)                  1.0923         0.357126   
     91. B(H  80,H   0)                  3.2985         0.000021   
     92. B(H  80,C  78)                  1.0870         0.364029   
     93. B(C  81,C  78)                  1.5295         0.374319   
     94. B(C  81,H   0)                  3.1554         0.000182   
     95. B(O  82,C  81)                  1.2506         0.933915   
     96. B(O  82,H   0)                  2.7098         0.000840   
     97. B(O  83,H  68)                  1.7182         0.032088   
     98. B(O  83,C  81)                  1.2544         0.920808   
     99. B(C  84,C  73)                  1.5423         0.357049   
    100. B(N  85,C  84)                  1.3387         0.675720   
    101. B(H  86,N  85)                  1.0226         0.413174   
    102. B(H  86,O  82)                  1.8739         0.018107   
    103. B(H  87,H  86)                  2.1642         0.001332   
    104. B(H  87,O  82)                  2.6191         0.001172   
    105. B(H  87,N  85)                  2.7995         0.000604   
    106. B(H  90,N  89)                  1.0176         0.420741   
    107. B(C  91,N  89)                  1.4710         0.415629   
    108. B(H  92,C  91)                  1.0906         0.359248   
    109. B(H  92,H  64)                  2.7166         0.000175   
    110. B(C  93,C  91)                  1.5071         0.406287   
    111. B(H  94,C  93)                  1.0864         0.364909   
    112. B(H  94,H  66)                  2.1187         0.001575   
    113. B(H  95,H  33)                  4.1180         0.000001   
    114. B(H  95,C  93)                  1.0914         0.358313   
    115. B(C  96,C  93)                  1.5318         0.371178   
    116. B(H  97,C  96)                  1.0891         0.361355   
    117. B(H  97,H  64)                  2.2727         0.000894   
    118. B(H  98,C  96)                  1.0906         0.359333   
    119. B(C  99,C  96)                  1.5355         0.366067   
    120. B(H 100,C  99)                  1.0901         0.360019   
    121. B(H 101,C  99)                  1.0922         0.357254   
    122. B(N 102,C  99)                  1.4715         0.414793   
    123. B(H 103,N 102)                  1.0211         0.415389   
    124. B(C 104,N 102)                  1.3225         0.716993   
    125. B(N 105,C 104)                  1.3002         0.778313   
    126. B(H 106,O  83)                  1.8116         0.022763   
    127. B(H 106,N 105)                  1.0221         0.413850   
    128. B(H 107,N 105)                  1.0126         0.428602   
    129. B(N 108,H 107)                  2.3904         0.002716   
    130. B(N 108,C 104)                  1.2994         0.780612   
    131. B(N 108,H 103)                  2.4487         0.002192   
    132. B(H 109,N 108)                  1.0153         0.424388   
    133. B(H 110,N 108)                  1.0076         0.436581   
    134. B(C 111,C  91)                  1.5260         0.379069   
    135. B(O 112,C 111)                  1.2308         1.004266   
    136. B(O 113,H  51)                  1.9371         0.014357   
    137. B(O 113,H  61)                  2.2456         0.004622   
    138. B(H 114,H  48)                  2.2868         0.000849   
    139. B(H 114,H  40)                  2.8965         0.000090   
    140. B(H 114,O 113)                  2.5612         0.001450   
    141. B(H 115,H  49)                  2.2405         0.001007   
    142. B(H 115,H  48)                  2.8168         0.000121   
    143. B(N 117,C 116)                  1.3335         0.688639   
    144. B(H 118,N 117)                  1.0101         0.432494   
    145. B(C 119,N 117)                  1.4679         0.420329   
    146. B(H 120,H  65)                  4.0649         0.000001   
    147. B(H 120,C 119)                  1.0894         0.360892   
    148. B(C 121,C 119)                  1.5005         0.416275   
    149. B(H 122,C 121)                  1.0891         0.361279   
    150. B(H 123,C 121)                  1.0900         0.360129   
    151. B(C 124,C 121)                  1.5243         0.381517   
    152. B(C 125,C 124)                  1.4106         0.579190   
    153. B(H 126,C 125)                  1.0787         0.375410   
    154. B(C 127,C 125)                  1.4072         0.586632   
    155. B(H 128,H  43)                  3.7286         0.000004   
    156. B(H 128,C 127)                  1.0786         0.375539   
    157. B(C 129,C 127)                  1.4097         0.581129   
    158. B(O 130,C 129)                  1.3583         0.628779   
    159. B(H 131,O 130)                  0.9816         0.480303   
    160. B(C 132,C 129)                  1.4093         0.582030   
    161. B(H 133,C 132)                  1.0806         0.372788   
    162. B(C 134,C 132)                  1.4104         0.579580   
    163. B(C 134,C 124)                  1.4081         0.584688   
    164. B(H 135,C 134)                  1.0800         0.373568   
    165. B(C 136,C 119)                  1.5369         0.364202   
    166. B(O 137,H   6)                 18.9676         0.000000   
    167. B(O 137,C 136)                  1.2331         0.995715   
    168. B(O 137,C  69)                 17.1528         0.000000   
    169. B(O 138,H 135)                  2.6581         0.001016   
    170. B(O 138,H 123)                  2.9449         0.000354   
    171. B(H 139,O 138)                  2.7234         0.000799   
    172. B(H 140,H 133)                  3.0655         0.000049   
    173. B(H 140,H 139)                  1.7572         0.005944   
    174. B(H 141,H 126)                  2.3124         0.000773   
    175. B(H 141,C 125)                  2.9178         0.000437   
    176. B(C 142,H 140)                  2.6742         0.001069   
    177. B(H 143,H 140)                  3.2864         0.000022   
    178. B(H 143,C 142)                  1.0883         0.362334   
    179. B(H 144,H 140)                  2.5628         0.000308   
    180. B(H 144,C 142)                  1.0896         0.360619   
    181. B(C 145,H 140)                  2.8425         0.000576   
    182. B(C 145,C 142)                  1.3376         0.757370   
    183. B(C 146,H 140)                  3.0182         0.000302   
    184. B(C 146,C 145)                  1.5204         0.386946   
    185. B(O 147,H 131)                  1.6773         0.037293   
    186. B(O 147,H 140)                  3.0552         0.000236   
    187. B(O 147,C 146)                  1.2594         0.904225   
    188. B(O 148,H   6)                 10.2719         0.000000   
    189. B(O 148,H 103)                  1.9786         0.012326   
    190. B(O 148,H  57)                  1.7904         0.024611   
    191. B(O 148,H  54)                  1.8934         0.016860   
    192. B(O 148,C 146)                  1.2582         0.908304   
    193. B(O 148,C  69)                 11.1559         0.000000   
    194. B(O 148,O 137)                 10.7899         0.000000   
    195. B(O 149,H 109)                  1.9323         0.014612   
    196. B(O 149,H 103)                  2.2002         0.005461   
    197. B(O 149,C 145)                  1.3833         0.573542   
    198. B(C 150,O 149)                  1.4639         0.426616   
    199. B(H 151,C   1)                  3.5484         0.000043   
    200. B(H 151,C 150)                  1.1023         0.344239   
    201. B(C 152,C   1)                  3.5374         0.000234   
    202. B(C 152,C 150)                  1.4897         0.433120   
    203. B(H 153,C   1)                  2.8390         0.000584   
    204. B(H 153,C 152)                  1.0915         0.358080   
    205. B(C 154,H   4)                  2.8823         0.000498   
    206. B(C 154,C 152)                  1.3441         0.739609   
    207. B(C 155,H   4)                  2.5578         0.001639   
    208. B(C 155,C 154)                  1.4654         0.473596   
    209. B(H 156,H   3)                  2.2270         0.001058   
    210. B(H 156,H   4)                  2.3842         0.000594   
    211. B(H 156,C   2)                  2.7353         0.000854   
    212. B(H 156,C 155)                  1.0935         0.355448   
    213. B(C 157,C 155)                  1.3463         0.733677   
    214. B(H 158,C 157)                  1.0940         0.354892   
    215. B(C 159,C 150)                  1.5514         0.345313   
    216. B(C 159,C 157)                  1.5033         0.412098   
    217. B(H 160,C 159)                  1.1034         0.342785   
    218. B(H 160,H 103)                  2.1739         0.001286   
    219. B(O 161,C 159)                  1.4334         0.477125   
    220. B(O 161,H  36)                  1.9588         0.013256   
    221. B(O 161,H  34)                  2.1973         0.005520   
    222. B(H 162,O 161)                  0.9707         0.499823   
    223. B(H 162,H  36)                  2.5462         0.000327   
    224. B(H 162,H  34)                  2.3932         0.000574   
    225. B(H 162,H   0)                  3.6633         0.000005   
    226. B(C 163,C 154)                  1.5209         0.386261   
    227. B(O 164,C 163)                  1.2588         0.906091   
    228. B(O 165,C 163)                  1.2542         0.921489   
    229. B(O 165,H  24)                  1.7968         0.024034   
    230. B(O 165,H  27)                  1.8757         0.017992   
    231. B(O 165,H   4)                  2.5201         0.001686   
    232. B(O 165,H   6)                  3.2354         0.000122   
    233. B(H 167,O 166)                  0.9800         0.483149   
    234. B(H 167,O 130)                  1.7709         0.026440   
    235. B(H 167,H 131)                  2.2211         0.001081   
    236. B(O 168,H  18)                  2.5852         0.001328   
    237. B(O 168,H  13)                  3.3138         0.000091   
    238. B(H 170,O 169)                  0.9709         0.499477   
    239. B(H 171,O 169)                  0.9943         0.458363   
    240. B(H 171,O 164)                  1.4088         0.099971   
    241. B(H 173,O 172)                  0.9917         0.462779   
    242. B(H 173,O 164)                  1.9631         0.013051   
    243. B(H 173,H 143)                  2.2220         0.001077   
    244. B(O 174,H  46)                  2.5380         0.001579   
    245. B(O 175,O 174)                  4.8753         0.000001   
    246. B(O 175,H  25)                  1.9614         0.013129   
    247. B(H 177,O 176)                  0.9908         0.464369   
    248. B(H 177,O 147)                  1.6945         0.035002   
    249. B(H 177,H 140)                  3.2549         0.000024   
    250. B(O 178,H 107)                  1.8946         0.016782   
    251. B(H 179,H  80)                  2.3655         0.000636   
    252. B(H 179,O  88)                  1.9312         0.014672   
    253. B(O 180,O 174)                  2.7012         0.004056   
    254. B(H 181,O 147)                  1.8355         0.020853   
    255. B(H 181,H 177)                  2.2868         0.000849   
    256. B(H 181,O 180)                  0.9857         0.473175   
    257. B(H 182,O 180)                  0.9690         0.503039   
    258. B(H 182,H 158)                  2.2577         0.000945   
    259. B(O 183,H  28)                  1.9357         0.014432   
    260. A(H  80,H   0,O  82)           49.1487         0.093436   
    261. A(H  80,H   0,C  81)           39.0378         0.092177   
    262. A(C  81,H   0,O  82)           23.0511         0.098085   
    263. A(C 152,C   1,H 153)           15.2108         0.099356   
    264. A(H 151,C   1,H 153)           44.4836         0.095105   
    265. A(H 151,C   1,C 152)           35.0864         0.094741   
    266. A(H   3,C   2,H   4)          108.7899         0.290682   
    267. A(H   3,C   2,H 156)           51.5204         0.140387   
    268. A(H   4,C   2,H 156)           59.9617         0.140354   
    269. A(C   2,H   3,H 156)          105.9483         0.132130   
    270. A(C   2,H   4,O 165)          125.2597         0.148204   
    271. A(C 154,H   4,C 155)           30.5145         0.102420   
    272. A(C   2,H   4,C 154)          143.9410         0.134444   
    273. A(H 156,H   4,O 165)           62.8498         0.100109   
    274. A(C   2,H   4,C 155)          114.2353         0.148519   
    275. A(C   2,H   4,H 156)           96.7050         0.126820   
    276. A(C 155,H   4,O 165)           68.7521         0.106483   
    277. A(C 155,H   4,H 156)           25.2539         0.100168   
    278. A(C 154,H   4,O 165)           51.4434         0.102349   
    279. A(C 154,H   4,H 156)           47.8773         0.097527   
    280. A(C  22,H   6,H  27)           43.0406         0.096629   
    281. A(N  26,H   6,H  27)           22.0500         0.096679   
    282. A(N  20,H   6,H  28)           43.3410         0.091334   
    283. A(C  22,H   6,H  28)           37.0215         0.093475   
    284. A(N  23,H   6,H  27)           49.9514         0.095623   
    285. A(N  20,H   6,C  22)           20.7064         0.096144   
    286. A(N  20,H   6,N  26)           41.2933         0.096191   
    287. A(H  24,H   6,O 165)           33.6392         0.093260   
    288. A(H  24,H   6,H  27)           42.7902         0.092817   
    289. A(C  22,H   6,O 165)           65.3903         0.097515   
    290. A(N  26,H   6,H  28)           14.4900         0.093504   
    291. A(N  23,H   6,O 165)           53.3252         0.096392   
    292. A(H  24,H   6,N  26)           50.5787         0.095899   
    293. A(N  23,H   6,N  26)           47.1617         0.100970   
    294. A(N   5,H   6,H  27)           97.5363         0.101369   
    295. A(H  27,H   6,O 165)           35.4136         0.093742   
    296. A(N   5,H   6,O 165)           63.8063         0.102806   
    297. A(N   5,H   6,N  20)          142.7397         0.100582   
    298. A(H  24,H   6,H  28)           65.0642         0.091239   
    299. A(N   5,H   6,N  23)          100.8809         0.108280   
    300. A(N   5,H   6,N  26)          119.2851         0.111355   
    301. A(N  26,H   6,O 165)           55.9129         0.097571   
    302. A(N   5,H   6,H  28)          128.2574         0.096255   
    303. A(N  23,H   6,H  28)           60.1581         0.092885   
    304. A(C  22,H   6,H  24)           41.9948         0.095854   
    305. A(C  22,H   6,N  26)           28.0105         0.102788   
    306. A(N   5,H   6,H  24)           82.8090         0.100111   
    307. A(H  27,H   6,H  28)           31.9900         0.091492   
    308. A(H  28,H   6,O 165)           67.3834         0.091782   
    309. A(N  20,H   6,H  24)           60.5684         0.092574   
    310. A(N  20,H   6,H  27)           60.9531         0.092979   
    311. A(C  22,H   6,N  23)           27.0273         0.100892   
    312. A(N  20,H   6,O 165)           86.0966         0.093441   
    313. A(N   5,H   6,C  22)          124.6442         0.111209   
    314. A(N  23,H   6,H  24)           20.7550         0.094950   
    315. A(N  20,H   6,N  23)           41.8589         0.095202   
    316. A(H   8,N   7,C   9)          118.4803         0.333973   
    317. A(C  11,C   9,C  29)          111.7059         0.354945   
    318. A(N   7,C   9,C  11)          108.7262         0.359755   
    319. A(N   7,C   9,C  29)          114.0117         0.365118   
    320. A(H  10,C   9,C  11)          109.7394         0.318120   
    321. A(N   7,C   9,H  10)          107.8486         0.326884   
    322. A(H  10,C   9,C  29)          104.6316         0.322658   
    323. A(C   9,C  11,H  13)          108.9980         0.318387   
    324. A(C   9,C  11,H  12)          111.0104         0.318061   
    325. A(H  12,C  11,H  13)          108.9457         0.290487   
    326. A(C   9,C  11,C  14)          109.4869         0.354223   
    327. A(H  12,C  11,C  14)          109.7323         0.321964   
    328. A(H  13,C  11,C  14)          108.6248         0.322296   
    329. A(C  11,H  13,O 168)          137.6878         0.119618   
    330. A(C  11,C  14,H  16)          109.3448         0.322485   
    331. A(H  15,C  14,H  16)          107.6986         0.290952   
    332. A(H  15,C  14,C  17)          107.2902         0.322963   
    333. A(C  11,C  14,C  17)          114.8826         0.359495   
    334. A(C  11,C  14,H  15)          108.3648         0.322312   
    335. A(H  16,C  14,C  17)          109.0162         0.323137   
    336. A(C  14,H  15,H  31)          162.1921         0.127573   
    337. A(H  18,C  17,H  19)          107.2150         0.290827   
    338. A(C  14,C  17,H  19)          108.3622         0.322865   
    339. A(H  19,C  17,N  20)          108.5445         0.326963   
    340. A(H  18,C  17,N  20)          109.6286         0.327191   
    341. A(C  14,C  17,H  18)          109.1076         0.323090   
    342. A(C  14,C  17,N  20)          113.7709         0.365002   
    343. A(C  17,H  18,O 168)          156.0682         0.145151   
    344. A(C  17,N  20,C  22)          126.4336         0.407815   
    345. A(H   6,N  20,C  22)           46.3359         0.125721   
    346. A(H   6,N  20,H  21)          102.3820         0.117308   
    347. A(H  21,N  20,C  22)          115.9605         0.368013   
    348. A(C  17,N  20,H  21)          117.3665         0.334776   
    349. A(H   6,N  20,C  17)          123.1285         0.121347   
    350. A(N  20,C  22,N  23)          123.8417         0.457851   
    351. A(N  20,C  22,N  26)          120.3731         0.458370   
    352. A(N  23,C  22,N  26)          115.7848         0.465434   
    353. A(H   6,C  22,N  26)           73.7691         0.160859   
    354. A(H   6,C  22,N  23)           81.8906         0.160758   
    355. A(H   6,C  22,N  20)          112.9577         0.159411   
    356. A(C  22,N  23,H  25)          122.2003         0.371054   
    357. A(H   6,N  23,H  24)           78.9535         0.135688   
    358. A(C  22,N  23,H  24)          117.0970         0.370731   
    359. A(H  24,N  23,H  25)          120.5326         0.300392   
    360. A(H   6,N  23,C  22)           71.0821         0.151295   
    361. A(H   6,N  23,H  25)          123.6727         0.135742   
    362. A(H   6,H  24,O 165)           85.9145         0.103090   
    363. A(N  23,H  24,O 165)          153.5979         0.199567   
    364. A(H   6,H  24,N  23)           80.2915         0.115908   
    365. A(N  23,H  25,O 175)          167.6434         0.185536   
    366. A(H   6,N  26,C  22)           78.2204         0.161332   
    367. A(H   6,N  26,H  28)          124.4594         0.143449   
    368. A(H   6,N  26,H  27)           81.0066         0.142925   
    369. A(H  27,N  26,H  28)          121.0178         0.300551   
    370. A(C  22,N  26,H  27)          116.5826         0.370032   
    371. A(C  22,N  26,H  28)          120.1799         0.372765   
    372. A(H   6,H  27,O 165)           88.2928         0.103690   
    373. A(N  26,H  27,O 165)          149.9680         0.192152   
    374. A(H   6,H  27,N  26)           76.9434         0.118836   
    375. A(H   6,H  28,O 183)          152.5460         0.097197   
    376. A(N  26,H  28,O 183)          164.2049         0.188084   
    377. A(H   6,H  28,N  26)           41.0506         0.106671   
    378. A(C   9,C  29,O  30)          119.6291         0.427395   
    379. A(H  33,O  32,H  55)           76.2736         0.114018   
    380. A(O  32,H  33,H  49)           58.3629         0.099573   
    381. A(H  36,H  34,O 161)           52.6726         0.105685   
    382. A(O 161,H  34,H 162)           23.9288         0.103421   
    383. A(H  36,H  34,H 162)           66.9092         0.097089   
    384. A(H  34,H  36,S  35)          108.9731         0.137242   
    385. A(H  34,H  36,H 162)           59.8399         0.096123   
    386. A(H  34,H  36,O 161)           63.1245         0.109344   
    387. A(S  35,H  36,O 161)          158.0492         0.193874   
    388. A(S  35,H  36,H 162)          138.1248         0.125717   
    389. A(O 161,H  36,H 162)           19.9289         0.104484   
    390. A(H  38,N  37,C  39)          116.7457         0.334967   
    391. A(N  37,C  39,C  59)          112.3222         0.369459   
    392. A(N  37,C  39,H  40)          108.7579         0.329427   
    393. A(H  40,C  39,C  59)          105.7071         0.324937   
    394. A(H  40,C  39,C  41)          109.2497         0.323374   
    395. A(N  37,C  39,C  41)          109.8454         0.367602   
    396. A(C  41,C  39,C  59)          110.8247         0.362399   
    397. A(C  39,H  40,H 114)          154.5382         0.113745   
    398. A(C  39,C  41,C  44)          114.2733         0.360121   
    399. A(H  42,C  41,C  44)          108.8438         0.322250   
    400. A(C  39,C  41,H  43)          109.5139         0.322887   
    401. A(C  39,C  41,H  42)          109.7548         0.322651   
    402. A(H  43,C  41,C  44)          107.8684         0.322485   
    403. A(H  42,C  41,H  43)          106.2671         0.290216   
    404. A(C  41,C  44,C  47)          115.7879         0.359538   
    405. A(C  41,C  44,H  45)          109.2228         0.322720   
    406. A(H  45,C  44,C  47)          108.5178         0.322618   
    407. A(H  46,C  44,C  47)          107.6739         0.323373   
    408. A(H  45,C  44,H  46)          107.7075         0.291477   
    409. A(C  41,C  44,H  46)          107.6491         0.323475   
    410. A(C  44,H  46,O 174)          152.8620         0.147558   
    411. A(H  49,C  47,N  50)          109.6822         0.327577   
    412. A(C  44,C  47,H  48)          108.1544         0.322714   
    413. A(C  44,C  47,H  49)          109.1610         0.323055   
    414. A(C  44,C  47,N  50)          113.8130         0.364645   
    415. A(H  48,C  47,N  50)          108.5171         0.327230   
    416. A(H  48,C  47,H  49)          107.3007         0.291285   
    417. A(C  47,H  48,H 115)           86.5358         0.115423   
    418. A(H 114,H  48,H 115)           96.4454         0.094370   
    419. A(C  47,H  48,H 114)          173.5944         0.130055   
    420. A(H  33,H  49,C  47)          135.4649         0.132262   
    421. A(C  47,H  49,H 115)          121.5115         0.131730   
    422. A(H  33,H  49,H 115)           86.0799         0.098125   
    423. A(H  51,N  50,C  52)          116.6376         0.367695   
    424. A(C  47,N  50,H  51)          115.3681         0.334323   
    425. A(C  47,N  50,C  52)          127.9942         0.408191   
    426. A(N  50,H  51,O 113)          146.6919         0.188104   
    427. A(N  50,C  52,N  53)          124.2991         0.459164   
    428. A(N  50,C  52,N  56)          120.7833         0.459206   
    429. A(N  53,C  52,N  56)          114.9171         0.466917   
    430. A(C  52,N  53,H  55)          122.0118         0.372235   
    431. A(C  52,N  53,H  54)          117.1154         0.372203   
    432. A(H  54,N  53,H  55)          120.8724         0.301274   
    433. A(N  53,H  54,O 148)          150.2434         0.191307   
    434. A(O  32,H  55,N  53)          161.0283         0.193791   
    435. A(C  52,N  56,H  58)          121.9810         0.373955   
    436. A(H  57,N  56,H  58)          122.1687         0.301376   
    437. A(C  52,N  56,H  57)          115.1835         0.370692   
    438. A(N  56,H  57,O 148)          156.7210         0.199845   
    439. A(H  64,H  57,O 148)          113.7905         0.102103   
    440. A(N  56,H  57,H  64)           88.7846         0.113818   
    441. A(N  56,H  58,O  63)          172.5631         0.195898   
    442. A(N  56,H  58,H  64)          111.4617         0.122935   
    443. A(O  63,H  58,H  64)           72.3588         0.105886   
    444. A(C  39,C  59,N  60)          114.5149         0.403285   
    445. A(C  59,N  60,H  61)          117.9008         0.366678   
    446. A(N  60,H  61,O 113)          144.8220         0.165796   
    447. A(O  63,H  61,O 113)           94.5808         0.115016   
    448. A(N  60,H  61,O  63)          103.1196         0.161783   
    449. A(O  63,C  62,H  64)           66.6180         0.153578   
    450. A(H  58,O  63,C  62)          118.8742         0.237785   
    451. A(H  61,O  63,C  62)           86.6102         0.190301   
    452. A(H  58,O  63,H  61)           82.8005         0.125215   
    453. A(H  58,O  63,H  64)           66.1778         0.116086   
    454. A(C  62,O  63,H  64)           88.0550         0.164766   
    455. A(H  61,O  63,H  64)          140.8133         0.107442   
    456. A(H  57,H  64,H  58)           37.1948         0.092966   
    457. A(C  62,H  64,H  92)           79.8088         0.095396   
    458. A(H  58,H  64,H  97)           74.5504         0.095767   
    459. A(O  63,H  64,H  97)          100.1411         0.099855   
    460. A(H  58,H  64,O  63)           41.4634         0.097599   
    461. A(C  62,H  64,H  97)          125.3656         0.098252   
    462. A(H  58,H  64,C  62)           58.4329         0.096329   
    463. A(H  65,H  64,H  92)          138.1349         0.097995   
    464. A(H  57,H  64,C  62)           90.1876         0.094422   
    465. A(H  58,H  64,H  65)          142.1440         0.099306   
    466. A(O  63,H  64,H  65)          124.0615         0.105532   
    467. A(H  57,H  64,H  97)           62.3092         0.094006   
    468. A(H  57,H  64,H  65)          126.2037         0.096624   
    469. A(H  57,H  64,O  63)           78.2749         0.095361   
    470. A(H  65,H  64,H  97)          135.5704         0.102010   
    471. A(C  62,H  64,H  65)           99.0159         0.103091   
    472. A(H  57,H  64,H  92)           95.6484         0.092461   
    473. A(H  58,H  64,H  92)           72.1739         0.093678   
    474. A(O  63,H  64,H  92)           59.5468         0.096504   
    475. A(C  62,H  64,O  63)           25.3271         0.100756   
    476. A(H  92,H  64,H  97)           59.3451         0.094906   
    477. A(O  67,H  66,H  94)          141.0446         0.109697   
    478. A(H  68,H  66,H  94)          118.9539         0.100122   
    479. A(O  67,H  66,H  68)           27.4324         0.109856   
    480. A(H  66,O  67,H  68)           80.3576         0.182048   
    481. A(H  66,H  68,O  67)           72.2100         0.139001   
    482. A(H  66,H  68,O  83)          116.0861         0.116195   
    483. A(O  67,H  68,O  83)          161.5333         0.210329   
    484. A(H  70,C  69,H  76)           67.1911         0.100702   
    485. A(H  76,C  69,H  77)           31.5660         0.095829   
    486. A(H  72,C  69,H  76)           48.5827         0.098838   
    487. A(H  70,C  69,H  72)           76.6723         0.100417   
    488. A(H  72,C  69,H  77)           45.8264         0.095662   
    489. A(H  70,C  69,H  77)           38.9434         0.096925   
    490. A(C  69,H  70,H  77)           87.3162         0.101284   
    491. A(H  72,N  71,C  73)          116.9169         0.334993   
    492. A(C  69,H  72,N  71)          152.3614         0.134178   
    493. A(N  71,C  73,H  74)          108.0890         0.328384   
    494. A(N  71,C  73,C  75)          107.3242         0.361764   
    495. A(H  74,C  73,C  75)          109.7307         0.318465   
    496. A(N  71,C  73,C  84)          112.8153         0.365560   
    497. A(H  74,C  73,C  84)          108.1248         0.321658   
    498. A(C  75,C  73,C  84)          110.7050         0.354100   
    499. A(C  73,C  75,H  76)          109.2593         0.318643   
    500. A(C  73,C  75,H  77)          108.2004         0.319048   
    501. A(H  76,C  75,H  77)          107.7197         0.291052   
    502. A(C  73,C  75,C  78)          115.7633         0.355929   
    503. A(H  76,C  75,C  78)          107.6270         0.323445   
    504. A(H  77,C  75,C  78)          108.0026         0.323859   
    505. A(C  69,H  76,C  75)          123.9671         0.134097   
    506. A(C  69,H  77,C  75)           94.6852         0.119595   
    507. A(C  69,H  77,H  70)           53.7404         0.096168   
    508. A(H  70,H  77,C  75)          140.9015         0.136421   
    509. A(C  75,C  78,H  79)          108.5861         0.323089   
    510. A(C  75,C  78,H  80)          109.0313         0.324105   
    511. A(H  79,C  78,H  80)          107.1053         0.290956   
    512. A(C  75,C  78,C  81)          111.8784         0.362553   
    513. A(H  79,C  78,C  81)          109.9254         0.323983   
    514. A(H  80,C  78,C  81)          110.1813         0.325004   
    515. A(C  78,H  80,H 179)          141.4315         0.127536   
    516. A(H   0,H  80,H 179)           71.7388         0.092370   
    517. A(H   0,H  80,C  78)          104.1308         0.106740   
    518. A(H   0,C  81,O  83)          115.6888         0.140394   
    519. A(C  78,C  81,O  82)          117.9543         0.423951   
    520. A(C  78,C  81,O  83)          117.0579         0.422881   
    521. A(O  82,C  81,O  83)          124.8821         0.496262   
    522. A(H   0,C  81,O  82)           58.0424         0.140559   
    523. A(H   0,C  81,C  78)           99.0403         0.131269   
    524. A(C  81,O  82,H  87)          157.9795         0.166633   
    525. A(H   0,O  82,H  87)           65.6309         0.102679   
    526. A(H   0,O  82,C  81)           98.9065         0.160990   
    527. A(C  81,O  83,H 106)          111.4518         0.240437   
    528. A(H  68,O  83,H 106)          141.8031         0.150056   
    529. A(H  68,O  83,C  81)          100.6532         0.252675   
    530. A(C  73,C  84,N  85)          117.7644         0.396984   
    531. A(C  84,N  85,H  87)          160.5194         0.151102   
    532. A(H  86,N  85,H  87)           42.8316         0.136886   
    533. A(C  84,N  85,H  86)          117.8353         0.361113   
    534. A(N  85,H  86,H  87)          118.4318         0.135333   
    535. A(O  82,H  87,H  86)           44.8876         0.101285   
    536. A(N  85,H  87,H  86)           18.7366         0.099574   
    537. A(O  82,H  87,N  85)           63.0690         0.101697   
    538. A(H  90,N  89,C  91)          116.7798         0.333772   
    539. A(N  89,C  91,C 111)          110.0961         0.368666   
    540. A(C  93,C  91,C 111)          108.8229         0.369539   
    541. A(N  89,C  91,H  92)          109.5734         0.327958   
    542. A(H  92,C  91,C 111)          108.1311         0.324971   
    543. A(N  89,C  91,C  93)          111.9354         0.373090   
    544. A(H  92,C  91,C  93)          108.1861         0.328704   
    545. A(H  64,H  92,C  91)          143.6970         0.117692   
    546. A(H  94,C  93,C  96)          108.8398         0.324683   
    547. A(C  91,C  93,H  94)          108.2717         0.329554   
    548. A(C  91,C  93,H  95)          109.5764         0.328563   
    549. A(H  94,C  93,H  95)          108.0375         0.291219   
    550. A(C  91,C  93,C  96)          113.4122         0.368207   
    551. A(H  95,C  93,C  96)          108.5699         0.323712   
    552. A(H  66,H  94,C  93)          171.5722         0.136340   
    553. A(H  97,C  96,C  99)          108.8614         0.323424   
    554. A(H  97,C  96,H  98)          108.7235         0.290901   
    555. A(C  93,C  96,H  97)          109.3058         0.324161   
    556. A(C  93,C  96,H  98)          109.6643         0.323863   
    557. A(C  93,C  96,C  99)          111.0408         0.361696   
    558. A(H  98,C  96,C  99)          109.2054         0.323127   
    559. A(H  64,H  97,C  96)          159.0251         0.130557   
    560. A(C  96,C  99,H 100)          109.8172         0.323228   
    561. A(C  96,C  99,H 101)          109.1660         0.322820   
    562. A(H 100,C  99,H 101)          107.7912         0.290467   
    563. A(C  96,C  99,N 102)          110.5742         0.366339   
    564. A(H 100,C  99,N 102)          110.7804         0.327965   
    565. A(H 101,C  99,N 102)          108.6453         0.327548   
    566. A(C  99,N 102,H 103)          115.8661         0.332953   
    567. A(C  99,N 102,C 104)          126.6792         0.409260   
    568. A(H 103,N 102,C 104)          116.9402         0.365123   
    569. A(N 102,H 103,H 160)          110.4623         0.135017   
    570. A(O 148,H 103,H 160)           68.4842         0.109757   
    571. A(N 102,H 103,O 149)          131.6277         0.167909   
    572. A(O 148,H 103,O 149)           79.5626         0.124593   
    573. A(O 149,H 103,H 160)           68.1587         0.106264   
    574. A(N 102,H 103,O 148)          147.4353         0.183874   
    575. A(N 102,C 104,N 105)          122.9264         0.458289   
    576. A(N 102,C 104,N 108)          120.2231         0.458536   
    577. A(N 105,C 104,N 108)          116.8480         0.465463   
    578. A(C 104,N 105,H 106)          118.8965         0.370063   
    579. A(C 104,N 105,H 107)          118.7495         0.372300   
    580. A(H 106,N 105,H 107)          120.8292         0.300650   
    581. A(O  83,H 106,N 105)          157.6584         0.197913   
    582. A(N 105,H 107,O 178)          167.6032         0.191461   
    583. A(C 104,N 108,H 110)          119.7051         0.373675   
    584. A(H 109,N 108,H 110)          122.0930         0.302748   
    585. A(C 104,N 108,H 109)          117.4933         0.371856   
    586. A(N 108,H 109,O 149)          143.6554         0.188077   
    587. A(C  91,C 111,O 112)          120.4216         0.430475   
    588. A(H  51,O 113,H  61)           58.3462         0.124478   
    589. A(H  51,O 113,H 114)          106.8060         0.116291   
    590. A(H  61,O 113,H 114)          123.3828         0.110116   
    591. A(H  48,H 114,O 113)           67.1119         0.100642   
    592. A(H  40,H 114,H  48)           49.0996         0.094026   
    593. A(H  40,H 114,O 113)           54.7677         0.096013   
    594. A(H  48,H 115,H  49)           38.4945         0.094581   
    595. A(C 116,N 117,H 118)          118.3282         0.365123   
    596. A(C 116,N 117,C 119)          124.7186         0.407303   
    597. A(H 118,N 117,C 119)          116.8939         0.335931   
    598. A(N 117,C 119,H 120)          109.4439         0.328815   
    599. A(N 117,C 119,C 121)          109.0298         0.375384   
    600. A(H 120,C 119,C 121)          110.1518         0.330274   
    601. A(N 117,C 119,C 136)          109.4402         0.366851   
    602. A(H 120,C 119,C 136)          107.4560         0.323086   
    603. A(C 121,C 119,C 136)          111.2913         0.368543   
    604. A(C 119,C 121,H 122)          110.7543         0.330333   
    605. A(C 119,C 121,H 123)          107.6683         0.330159   
    606. A(H 122,C 121,H 123)          107.3034         0.290992   
    607. A(C 119,C 121,C 124)          113.6627         0.371497   
    608. A(H 122,C 121,C 124)          108.7144         0.325617   
    609. A(H 123,C 121,C 124)          108.5218         0.325446   
    610. A(C 121,H 123,O 138)          142.1251         0.130616   
    611. A(C 121,C 124,C 125)          120.7744         0.393425   
    612. A(C 121,C 124,C 134)          119.9155         0.394076   
    613. A(C 125,C 124,C 134)          119.3093         0.424309   
    614. A(C 124,C 125,H 126)          120.2883         0.351334   
    615. A(C 124,C 125,C 127)          120.3922         0.424561   
    616. A(H 126,C 125,C 127)          119.3108         0.352093   
    617. A(C 124,C 125,H 141)          124.9993         0.145848   
    618. A(H 126,C 125,H 141)           46.5360         0.133571   
    619. A(C 127,C 125,H 141)           96.8336         0.146013   
    620. A(C 125,H 126,H 141)          113.6744         0.129557   
    621. A(C 125,C 127,H 128)          120.3140         0.352113   
    622. A(C 125,C 127,C 129)          120.0652         0.424815   
    623. A(H 128,C 127,C 129)          119.6179         0.351553   
    624. A(C 127,C 129,O 130)          119.6911         0.427323   
    625. A(C 127,C 129,C 132)          119.7653         0.424217   
    626. A(O 130,C 129,C 132)          120.5405         0.427442   
    627. A(C 129,O 130,H 131)          111.2069         0.365994   
    628. A(C 129,O 130,H 167)          106.9174         0.232699   
    629. A(H 131,O 130,H 167)          103.8761         0.205529   
    630. A(O 147,H 131,H 167)          116.1204         0.114642   
    631. A(O 130,H 131,O 147)          165.9478         0.214963   
    632. A(O 130,H 131,H 167)           50.7171         0.134725   
    633. A(C 129,C 132,H 133)          119.4945         0.351208   
    634. A(C 129,C 132,C 134)          119.9118         0.424014   
    635. A(H 133,C 132,C 134)          120.5937         0.350958   
    636. A(C 132,H 133,H 140)          114.3384         0.110648   
    637. A(C 124,C 134,C 132)          120.4768         0.424360   
    638. A(C 124,C 134,H 135)          119.7067         0.351603   
    639. A(C 132,C 134,H 135)          119.8135         0.351082   
    640. A(C 134,H 135,O 138)          134.2577         0.142263   
    641. A(C 119,C 136,O 137)          119.1345         0.426743   
    642. A(H 135,O 138,H 139)           57.8454         0.102093   
    643. A(H 123,O 138,H 135)           48.8755         0.099891   
    644. A(H 123,O 138,H 139)           97.3049         0.099315   
    645. A(O 138,H 139,H 140)          151.6499         0.104802   
    646. A(O 147,H 140,H 177)           30.9478         0.092452   
    647. A(H 133,H 140,H 139)           61.6845         0.095784   
    648. A(H 133,H 140,O 147)           57.3369         0.093041   
    649. A(C 142,H 140,H 144)           23.8951         0.097739   
    650. A(H 144,H 140,C 145)           45.1822         0.096598   
    651. A(C 142,H 140,C 145)           27.8504         0.101593   
    652. A(H 144,H 140,C 146)           57.0071         0.095565   
    653. A(C 145,H 140,C 146)           29.8797         0.098460   
    654. A(H 144,H 140,O 147)           51.7552         0.095137   
    655. A(C 142,H 140,O 147)           58.5476         0.099171   
    656. A(C 146,H 140,O 147)           23.9250         0.096641   
    657. A(H 133,H 140,H 144)          108.9985         0.092472   
    658. A(H 133,H 140,C 142)          111.9501         0.094754   
    659. A(H 133,H 140,C 145)           88.7611         0.094003   
    660. A(H 133,H 140,C 146)           60.4733         0.093322   
    661. A(H 144,H 140,H 177)           43.1267         0.091966   
    662. A(C 142,H 140,H 177)           62.6969         0.093915   
    663. A(C 145,H 140,H 177)           67.3267         0.093273   
    664. A(C 146,H 140,H 177)           53.4170         0.092692   
    665. A(H 133,H 140,H 177)           73.9874         0.090953   
    666. A(H 143,H 140,H 144)           34.6982         0.091889   
    667. A(C 142,H 140,H 143)           17.4573         0.093788   
    668. A(H 143,H 140,C 145)           39.8170         0.093163   
    669. A(C 145,H 140,O 147)           47.4748         0.097843   
    670. A(H 143,H 140,C 146)           67.5081         0.092597   
    671. A(H 139,H 140,C 142)          171.5046         0.106077   
    672. A(H 133,H 140,H 143)          127.9428         0.090902   
    673. A(C 142,H 140,C 146)           51.7676         0.099880   
    674. A(H 143,H 140,H 177)           77.2906         0.090625   
    675. A(H 139,H 140,H 144)          149.7326         0.099304   
    676. A(H 139,H 140,C 145)          149.0493         0.103847   
    677. A(H 139,H 140,C 146)          122.1556         0.101828   
    678. A(H 139,H 140,O 147)          113.3600         0.100992   
    679. A(H 139,H 140,H 177)          109.1516         0.094795   
    680. A(H 139,H 140,H 143)          170.2411         0.094645   
    681. A(H 143,H 140,O 147)           76.0049         0.092362   
    682. A(C 125,H 141,H 126)           19.7897         0.097789   
    683. A(H 143,C 142,H 144)          118.9403         0.291188   
    684. A(H 143,C 142,C 145)          122.3100         0.365525   
    685. A(H 144,C 142,C 145)          118.7451         0.365228   
    686. A(H 140,C 142,H 143)          115.0540         0.143144   
    687. A(H 140,C 142,H 144)           72.3134         0.143086   
    688. A(H 140,C 142,C 145)           83.0881         0.162971   
    689. A(C 142,H 143,H 173)          139.9708         0.132371   
    690. A(H 140,H 143,C 142)           47.4887         0.106900   
    691. A(H 140,H 143,H 173)          132.7590         0.092836   
    692. A(H 140,H 144,C 142)           83.7915         0.121635   
    693. A(C 142,C 145,C 146)          122.2448         0.413515   
    694. A(C 142,C 145,O 149)          122.4011         0.440828   
    695. A(C 146,C 145,O 149)          115.3383         0.391216   
    696. A(H 140,C 145,C 142)           69.0615         0.153313   
    697. A(H 140,C 145,C 146)           81.4731         0.144244   
    698. A(H 140,C 145,O 149)          120.7247         0.148894   
    699. A(C 145,C 146,O 147)          117.6384         0.424017   
    700. A(C 145,C 146,O 148)          116.5367         0.424358   
    701. A(O 147,C 146,O 148)          125.8242         0.492046   
    702. A(H 140,C 146,C 145)           68.6472         0.136733   
    703. A(H 140,C 146,O 147)           79.6846         0.146367   
    704. A(H 140,C 146,O 148)          121.1914         0.146426   
    705. A(H 131,O 147,H 181)           93.5187         0.150929   
    706. A(H 177,O 147,H 181)           80.6479         0.150047   
    707. A(H 140,O 147,C 146)           76.3904         0.142626   
    708. A(H 131,O 147,H 140)          109.0988         0.111461   
    709. A(H 140,O 147,H 177)           81.0481         0.111141   
    710. A(H 140,O 147,H 181)          151.4921         0.108692   
    711. A(H 131,O 147,C 146)          118.2835         0.257644   
    712. A(C 146,O 147,H 177)          145.9620         0.255242   
    713. A(C 146,O 147,H 181)          108.4700         0.236854   
    714. A(H 131,O 147,H 177)           92.9893         0.158631   
    715. A(H  57,O 148,C 146)          132.1495         0.242661   
    716. A(H  57,O 148,H 103)          107.0960         0.139045   
    717. A(H  54,O 148,C 146)           97.3530         0.230052   
    718. A(H  54,O 148,H 103)          122.8444         0.134938   
    719. A(H  54,O 148,H  57)           64.2498         0.142721   
    720. A(H 103,O 148,C 146)          119.2376         0.220399   
    721. A(C 145,O 149,C 150)          117.8886         0.395424   
    722. A(H 109,O 149,C 145)          130.9286         0.212061   
    723. A(H 109,O 149,C 150)          111.1378         0.204088   
    724. A(H 103,O 149,C 145)          107.6105         0.187487   
    725. A(H 103,O 149,C 150)          100.6138         0.181106   
    726. A(H 103,O 149,H 109)           63.5620         0.125990   
    727. A(O 149,C 150,H 151)          103.3113         0.327062   
    728. A(O 149,C 150,C 152)          108.4911         0.378939   
    729. A(H 151,C 150,C 152)          110.0813         0.329861   
    730. A(O 149,C 150,C 159)          111.4092         0.364446   
    731. A(H 151,C 150,C 159)          107.3515         0.317821   
    732. A(C 152,C 150,C 159)          115.5014         0.367684   
    733. A(C   1,H 151,C 150)          113.0592         0.114871   
    734. A(C   1,C 152,C 150)          101.7032         0.142452   
    735. A(C   1,C 152,H 153)           43.0317         0.133281   
    736. A(C   1,C 152,C 154)          125.3378         0.149334   
    737. A(C 150,C 152,H 153)          118.1979         0.332020   
    738. A(C 150,C 152,C 154)          121.9398         0.420118   
    739. A(H 153,C 152,C 154)          119.3559         0.363310   
    740. A(C   1,H 153,C 152)          121.7575         0.136086   
    741. A(H   4,C 154,C 152)          129.0863         0.150883   
    742. A(H   4,C 154,C 155)           62.4073         0.144944   
    743. A(H   4,C 154,C 163)           81.2155         0.142422   
    744. A(C 152,C 154,C 155)          120.0049         0.426881   
    745. A(C 152,C 154,C 163)          120.0225         0.411647   
    746. A(C 155,C 154,C 163)          119.9598         0.380682   
    747. A(H   4,C 155,C 154)           87.0782         0.162272   
    748. A(H   4,C 155,H 156)           68.4614         0.148387   
    749. A(H   4,C 155,C 157)          113.7351         0.169903   
    750. A(C 154,C 155,H 156)          116.5084         0.336570   
    751. A(C 154,C 155,C 157)          122.2879         0.426266   
[...]
      dxy     :     0.111723

  5 O s       :     3.565733  s :     3.565733
      pz      :     1.576055  p :     4.872624
      px      :     1.702765
      py      :     1.593803
      dz2     :     0.003060  d :     0.023297
      dxz     :     0.002375
      dyz     :     0.004012
      dx2y2   :     0.004848
      dxy     :     0.009001

  6 O s       :     3.566925  s :     3.566925
      pz      :     1.568812  p :     4.840255
      px      :     1.470320
      py      :     1.801123
      dz2     :     0.003555  d :     0.024037
      dxz     :     0.005065
      dyz     :     0.000126
      dx2y2   :     0.010779
      dxy     :     0.004514

  7 O s       :     3.464908  s :     3.464908
      pz      :     1.569324  p :     4.699554
      px      :     1.682116
      py      :     1.448114
      dz2     :     0.005424  d :     0.026899
      dxz     :     0.003389
      dyz     :     0.007392
      dx2y2   :     0.004038
      dxy     :     0.006657

  8 C s       :     2.862262  s :     2.862262
      pz      :     0.908330  p :     2.914147
      px      :     1.058458
      py      :     0.947359
      dz2     :     0.026489  d :     0.145524
      dxz     :     0.030696
      dyz     :     0.039660
      dx2y2   :     0.017737
      dxy     :     0.030943

  9 H s       :     0.901442  s :     0.901442
      pz      :     0.014001  p :     0.065317
      px      :     0.023054
      py      :     0.028262

 10 C s       :     2.876104  s :     2.876104
      pz      :     1.025687  p :     3.041414
      px      :     1.017188
      py      :     0.998539
      dz2     :     0.015739  d :     0.088468
      dxz     :     0.024034
      dyz     :     0.016459
      dx2y2   :     0.014024
      dxy     :     0.018213

 11 H s       :     0.901620  s :     0.901620
      pz      :     0.023461  p :     0.071793
      px      :     0.020849
      py      :     0.027483

 12 C s       :     2.885086  s :     2.885086
      pz      :     1.031028  p :     3.079947
      px      :     1.052915
      py      :     0.996004
      dz2     :     0.021465  d :     0.103777
      dxz     :     0.024585
      dyz     :     0.018613
      dx2y2   :     0.021155
      dxy     :     0.017958

 13 C s       :     2.870206  s :     2.870206
      pz      :     0.997951  p :     3.058952
      px      :     1.066684
      py      :     0.994318
      dz2     :     0.011795  d :     0.091932
      dxz     :     0.025787
      dyz     :     0.010989
      dx2y2   :     0.020682
      dxy     :     0.022679

 14 H s       :     0.910287  s :     0.910287
      pz      :     0.028821  p :     0.068791
      px      :     0.023463
      py      :     0.016507

 15 C s       :     2.880029  s :     2.880029
      pz      :     1.002982  p :     3.090668
      px      :     1.071089
      py      :     1.016597
      dz2     :     0.009705  d :     0.085674
      dxz     :     0.026363
      dyz     :     0.011524
      dx2y2   :     0.017652
      dxy     :     0.020430

 16 H s       :     0.907734  s :     0.907734
      pz      :     0.025167  p :     0.069284
      px      :     0.016358
      py      :     0.027758

 17 C s       :     2.846924  s :     2.846924
      pz      :     1.016326  p :     2.944609
      px      :     0.956805
      py      :     0.971478
      dz2     :     0.017574  d :     0.154475
      dxz     :     0.042490
      dyz     :     0.036522
      dx2y2   :     0.021590
      dxy     :     0.036299

 18 H s       :     0.919752  s :     0.919752
      pz      :     0.020689  p :     0.073462
      px      :     0.017848
      py      :     0.034925

 19 O s       :     3.453986  s :     3.453986
      pz      :     1.598207  p :     4.692835
      px      :     1.446379
      py      :     1.648250
      dz2     :     0.002265  d :     0.022691
      dxz     :     0.009571
      dyz     :     0.004459
      dx2y2   :     0.002604
      dxy     :     0.003791

 20 H s       :     0.732912  s :     0.732912
      pz      :     0.066280  p :     0.177665
      px      :     0.063663
      py      :     0.047722

 21 C s       :     2.853445  s :     2.853445
      pz      :     1.010575  p :     2.839838
      px      :     1.000168
      py      :     0.829095
      dz2     :     0.115245  d :     0.324286
      dxz     :     0.095649
      dyz     :     0.066726
      dx2y2   :     0.026425
      dxy     :     0.020242

 22 O s       :     3.567454  s :     3.567454
      pz      :     1.586440  p :     4.855796
      px      :     1.691374
      py      :     1.577982
      dz2     :     0.005973  d :     0.023385
      dxz     :     0.008610
      dyz     :     0.004735
      dx2y2   :     0.001887
      dxy     :     0.002179

 23 O s       :     3.566960  s :     3.566960
      pz      :     1.502520  p :     4.825265
      px      :     1.750350
      py      :     1.572395
      dz2     :     0.011581  d :     0.024508
      dxz     :     0.007271
      dyz     :     0.004496
      dx2y2   :     0.000657
      dxy     :     0.000503



                      *****************************
                      * MAYER POPULATION ANALYSIS *
                      *****************************

  NA   - Mulliken gross atomic population
  ZA   - Total nuclear charge
  QA   - Mulliken gross atomic charge
  VA   - Mayer's total valence
  BVA  - Mayer's bonded valence
  FA   - Mayer's free valence

  ATOM       NA         ZA         QA         VA         BVA        FA
  0 C      5.9576     6.0000     0.0424     3.8953     3.8953    -0.0000
  1 H      0.9804     1.0000     0.0196     1.0243     1.0243    -0.0000
  2 H      0.9981     1.0000     0.0019     1.0139     1.0139    -0.0000
  3 C      5.9947     6.0000     0.0053     3.9272     3.9272    -0.0000
  4 C      5.8739     6.0000     0.1261     4.4818     4.4818     0.0000
  5 O      8.5160     8.0000    -0.5160     1.9747     1.9747     0.0000
  6 O      8.4869     8.0000    -0.4869     1.9878     1.9878     0.0000
  7 O      8.4324     8.0000    -0.4324     2.0346     2.0346    -0.0000
  8 C      5.8046     6.0000     0.1954     3.8708     3.8708     0.0000
  9 H      0.9870     1.0000     0.0130     1.0042     1.0042     0.0000
 10 C      6.0476     6.0000    -0.0476     3.9289     3.9289     0.0000
 11 H      1.0012     1.0000    -0.0012     1.0159     1.0159     0.0000
 12 C      6.0252     6.0000    -0.0252     3.7116     3.7116    -0.0000
 13 C      5.9758     6.0000     0.0242     3.9099     3.9099    -0.0000
 14 H      1.0289     1.0000    -0.0289     1.0127     1.0127    -0.0000
 15 C      6.0967     6.0000    -0.0967     3.8502     3.8502    -0.0000
 16 H      1.0004     1.0000    -0.0004     0.9869     0.9869    -0.0000
 17 C      5.7491     6.0000     0.2509     3.8988     3.8988     0.0000
 18 H      1.0175     1.0000    -0.0175     1.0656     1.0656     0.0000
 19 O      8.3621     8.0000    -0.3621     2.0456     2.0456     0.0000
 20 H      0.8076     1.0000     0.1924     1.0038     1.0038     0.0000
 21 C      5.8962     6.0000     0.1038     4.5336     4.5336    -0.0000
 22 O      8.4966     8.0000    -0.4966     1.9774     1.9774     0.0000
 23 O      8.4636     8.0000    -0.4636     2.0211     2.0211     0.0000

  Mayer bond orders larger than 0.100000
B(  0-C ,  1-H ) :   0.9172 B(  0-C ,  2-H ) :   0.9238 B(  0-C ,  3-C ) :   1.9452 
B(  3-C ,  4-C ) :   0.8821 B(  3-C ,  7-O ) :   1.0265 B(  4-C ,  5-O ) :   1.8093 
B(  4-C ,  6-O ) :   1.7653 B(  5-O ,  6-O ) :   0.1026 B(  7-O ,  8-C ) :   0.9006 
B(  8-C ,  9-H ) :   0.9120 B(  8-C , 10-C ) :   1.0010 B(  8-C , 17-C ) :   0.9686 
B( 10-C , 11-H ) :   0.9586 B( 10-C , 12-C ) :   1.7688 B( 12-C , 13-C ) :   1.0803 
B( 12-C , 21-C ) :   0.8602 B( 13-C , 14-H ) :   0.9750 B( 13-C , 15-C ) :   1.7824 
B( 15-C , 16-H ) :   0.9680 B( 15-C , 17-C ) :   0.9751 B( 17-C , 18-H ) :   0.8903 
B( 17-C , 19-O ) :   1.0434 B( 19-O , 20-H ) :   0.9627 B( 21-C , 22-O ) :   1.8022 
B( 21-C , 23-O ) :   1.8639 B( 22-O , 23-O ) :   0.1014 

-------
TIMINGS
-------

Total SCF time: 0 days 0 hours 0 min 25 sec 

Total time                  ....      25.846 sec
Sum of individual times     ....      25.471 sec  ( 98.6%)

SCF preparation             ....       1.401 sec  (  5.4%)
Fock matrix formation       ....      22.928 sec  ( 88.7%)
  Startup                   ....       0.151 sec  (  0.7% of F)
  Split-RI-J                ....       1.855 sec  (  8.1% of F)
  Chain of spheres X        ....      17.289 sec  ( 75.4% of F)
  XC integration            ....       3.189 sec  ( 13.9% of F)
    Basis function eval.    ....       0.788 sec  ( 24.7% of XC)
    Density eval.           ....       0.446 sec  ( 14.0% of XC)
    XC-Functional eval.     ....       0.135 sec  (  4.2% of XC)
    XC-Potential eval.      ....       0.416 sec  ( 13.0% of XC)
Diagonalization             ....       0.000 sec  (  0.0%)
Density matrix formation    ....       0.244 sec  (  0.9%)
Total Energy calculation    ....       0.112 sec  (  0.4%)
Population analysis         ....       0.193 sec  (  0.7%)
Orbital Transformation      ....       0.058 sec  (  0.2%)
Orbital Orthonormalization  ....       0.000 sec  (  0.0%)
DIIS solution               ....       0.141 sec  (  0.5%)
SOSCF solution              ....       0.394 sec  (  1.5%)
Finished LeanSCF after  26.1 sec

Maximum memory used throughout the entire LEANSCF-calculation: 33.1 MB


-------------------------------------------------------------------------------
                          DFT DISPERSION CORRECTION                            
                                                                               
                              DFTD3 V3.1  Rev 1                                
                          USING Becke-Johnson damping                          
-------------------------------------------------------------------------------
The B3LYP functional is recognized
Active option DFTDOPT                   ...         4   

molecular C6(AA) [au] = 6928.104078 


            DFT-D V3
 parameters
 s6 scaling factor         :     1.0000 
 a1 scaling factor         :     0.3981 
 s8 scaling factor         :     1.9889 
 a2 scaling factor         :     4.4211 
 ad hoc parameters k1-k3   :    16.0000     1.3333    -4.0000 

 Edisp/kcal,au: -33.251946960840  -0.052990344829 
 E6   /kcal   : -15.586008800 
 E8   /kcal   : -17.665938161 
 % E8         :  53.127530192 

-------------------------   ----------------
Dispersion correction           -0.052990345
-------------------------   ----------------


-------------------------   --------------------
FINAL SINGLE POINT ENERGY      -836.980630101007
-------------------------   --------------------



--------------------------------------   --------------------
FINAL SINGLE POINT ENERGY (QM/MM)    -1076.130494943784
--------------------------------------   --------------------

                                *** OPTIMIZATION RUN DONE ***



           ************************************************************
           *        Program running with 8 parallel MPI-processes     *
           *              working on a common directory               *
           ************************************************************

------------------------------------------------------------------------------
                              ORCA PROPERTY CALCULATIONS
------------------------------------------------------------------------------

GBWName                                 ... reactant_reduced.gbw
Number of atoms                         ...     24
Number of basis functions               ...    264
Max core memory                         ...   3000 MB

Electric properties:
Dipole moment                           ... YES
Quadrupole moment                       ...  NO
Static polarizability (Dipole/Dipole)   ...  NO
Static polarizability (Dipole/Quad.)    ...  NO
Static polarizability (Quad./Quad.)     ...  NO
Static polarizability (Velocity)        ...  NO

Atomic electric properties:
Dipole moment                           ...  NO
Quadrupole moment                       ...  NO
Static polarizability                   ...  NO

Choice of electric origin               ... Center of mass
Position of electric origin             ...   111.112223    63.405597   105.113142

General magnetic properties:
Magnetizability                         ...  NO

EPR properties:
g-Tensor (aka g-matrix)                 ...  NO
Zero-Field splitting spin-orbit         ...  NO
Zero-field splitting spin-spin          ...  NO
Hyperfine couplings                     ...  NO (   0 nuclei)
Quadrupole couplings                    ...  NO (   0 nuclei)
Contact density                         ...  NO (   0 nuclei)

NMR properties:
Chemical shifts                         ...  NO (   0 nuclei)
Spin-rotation constants                 ...  NO (   0 nuclei)
Spin-spin couplings                     ...  NO (   0 nuclei,    0 pairs)

Choice of magnetic origin               ... GIAO
Position of magnetic origin             ...     0.000000     0.000000     0.000000

Properties with geometric perturbations:
SCF Hessian                             ...  NO
IR spectrum                             ...  NO
VCD spectrum                            ...  NO
X-ray spectroscopy properties:
SCF XES/XAS/RIXS spectra                ...  NO


-------------
DIPOLE MOMENT
-------------

Method             : SCF
Type of density    : Electron Density
Multiplicity       :   1
Irrep              :   0
Energy             :  -836.9276397561784506 Eh
Relativity type    : 
Basis              : AO
                                X                 Y                 Z
Electronic contribution:      0.421325009      -0.763476248       0.589570734
Nuclear contribution   :     -3.636052839      -1.868182830      -0.286098218
                        -----------------------------------------
Total Dipole Moment    :     -3.214727830      -2.631659078       0.303472516
                        -----------------------------------------
Magnitude (a.u.)       :      4.165597207
Magnitude (Debye)      :     10.588106650



--------------------
Rotational spectrum 
--------------------
 
Rotational constants in cm-1:             0.025294             0.014758             0.011956 
Rotational constants in MHz :           758.288036           442.427775           358.420896 

Dipole components along the rotational axes: 
x,y,z [a.u.] :    -0.605463    -3.516273    -2.149753 
x,y,z [Debye]:    -1.538966    -8.937655    -5.464239 

 

Dipole moment calculation done in   0.1 sec 

Maximum memory used throughout the entire PROP-calculation: 15.9 MB

--------------------------------
SUGGESTED CITATIONS FOR THIS RUN
--------------------------------

Below you find a list of papers that are relevant to this ORCA run
We neither can nor want to force you to cite these papers, but we appreciate if you do
You receive ORCA, which is the product of decades of hard work by many enthusiastic individuals, for free
The only thing we kindly ask in return is that you cite our papers,
We deeply appreciate it, if you show your appreciation for ORCA by not just citing the generic ORCA reference.

Please note that relegating all ORCA citations to the supporting information does *not* help us.
SI sections are not indexed - citations you put there will not count into any citation statistics
But we need these citations in order to attract the funding resources that allow us to do what we are doing

Therefore, if you are a happy ORCA user, please consider citing a few of the papers listed below in the main body of your paper

In addition to the list printed below, the program has created the file reactant_reduced.bibtex that contains the list in bibtex format
You can import this file easily into all common literature databanks and citation aid programs


List of essential papers. We consider these as the minimum necessary citations

  1. Neese,F.
     Software update: the ORCA program system, version 5.0
     WIRES Comput. Molec. Sci., 2022 12(1)e1606
     doi.org/10.1002/wcms.1606

List of papers to cite with high priority. The work reported in these papers was absolutely
necessary for this run to complete.
Our perspective: the developers of density functionals and basis sets usually get cited in chemistry papers
Good! But without the algorithms to do something with them, the functionals or basis sets would not do anything.
Hence, in our opinion, the algorithm design and method developments papers are equally worthy of getting cited

  1. Neese,F.
     An improvement of the resolution of the identity approximation for the formation of the Coulomb matrix
     J. Comp. Chem., 2003 24(14)1740-1747
     doi.org/10.1002/jcc.10318
  2. Neese,F.; Wennmohs,F.; Hansen,A.; Becker,U.
     Efficient, approximate and parallel Hartree-Fock and hybrid DFT calculations. A 'chain-of-spheres' algorithm for the Hartree-Fock exchange
     Chem. Phys., 2009 356(1-3)98-109
     doi.org/10.1016/j.chemphys.2008.10.036
  3. Helmich-Paris,B.; de Souza,B.; Neese,F.; Izsák,R.
     An improved chain of spheres for exchange algorithm
     J. Chem. Phys., 2021 155 104109
     doi.org/doi: 10.1063/5.0058766.
  4. Neese,F.
     The SHARK Integral Generation and Digestion System
     J. Comp. Chem., 2022  1-16
     doi.org/10.1002/jcc.26942
  5. Grimme,S.; Antony,J.; Ehrlich,S.; Krieg,H.
     A consistent and accurate ab initio parametrization of density functional dispersion correction (DFT-D) for the 94 elements H-Pu
     J. Chem. Phys., 2010 132 154104
     doi.org/10.1063/1.3382344
  6. Grimme,S.; Ehrlich,S.; Goerigk,L.
     Effect of the damping function in dispersion corrected density functional theory
     J. Comput. Chem., 2011 32(7)1456-1465
     doi.org/10.1002/jcc.21759

List of suggested additional citations. These are papers that are important in the 'surrounding' of 
of this run, or papers that preceded the highly important papers. If you like your results we are grateful for a citation.

  1. Izsak,R.; Neese,F.
     An overlap fitted chain of spheres exchange method
     J. Chem. Phys., 2011 135 144105
     doi.org/10.1063/1.3646921
  2. Izsak,R.; Hansen,A.; Neese,F.
     The resolution of identity and chain of spheres approximations for the LPNO-CCSD singles Fock term
     Molec. Phys., 2012 110 2413-2417
     doi.org/10.1080/00268976.2012.687466
  3. Neese,F.
     The ORCA program system
     WIRES Comput. Molec. Sci., 2012 2(1)73-78
     doi.org/10.1002/wcms.81
  4. Izsak,R.; Neese,F.; Klopper,W.
     Robust fitting techniques in the chain of spheres approximation to the Fock exchange: The role of the complementary space
     J. Chem. Phys., 2013 139 
     doi.org/10.1063/1.4819264
  5. Neese,F.
     Software update: the ORCA program system, version 4.0
     WIRES Comput. Molec. Sci., 2018 8(1)1-6
     doi.org/10.1002/wcms.1327
  6. Neese,F.; Wennmohs,F.; Becker,U.; Riplinger,C.
     The ORCA quantum chemistry program package
     J. Chem. Phys., 2020 152 Art. No. L224108
     doi.org/10.1063/5.0004608

List of optional additional citations

  1. Neese,F.
     Approximate second-order SCF convergence for spin unrestricted wavefunctions
     Chem. Phys. Lett., 2000 325(1-3)93-98
     doi.org/10.1016/s0009-2614(00)00662-x

Timings for individual modules:

Sum of individual times          ...     3143.325 sec (=  52.389 min)
Startup calculation              ...      425.255 sec (=   7.088 min)  13.5 %
SCF iterations                   ...     1536.691 sec (=  25.612 min)  48.9 %
Property calculations            ...        2.920 sec (=   0.049 min)   0.1 %
SCF Gradient evaluation          ...      853.881 sec (=  14.231 min)  27.2 %
Geometry relaxation              ...      127.815 sec (=   2.130 min)   4.1 %
MM module                        ...      196.764 sec (=   3.279 min)   6.3 %
                             ****ORCA TERMINATED NORMALLY****
TOTAL RUN TIME: 0 days 1 hours 1 minutes 3 seconds 200 msec
