
                                 *****************
                                 * O   R   C   A *
                                 *****************

                                            #,                                       
                                            ###                                      
                                            ####                                     
                                            #####                                    
                                            ######                                   
                                           ########,                                 
                                     ,,################,,,,,                         
                               ,,#################################,,                 
                          ,,##########################################,,             
                       ,#########################################, ''#####,          
                    ,#############################################,,   '####,        
                  ,##################################################,,,,####,       
                ,###########''''           ''''###############################       
              ,#####''   ,,,,##########,,,,          '''####'''          '####       
            ,##' ,,,,###########################,,,                        '##       
           ' ,,###''''                  '''############,,,                           
         ,,##''                                '''############,,,,        ,,,,,,###''
      ,#''                                            '''#######################'''  
     '                                                          ''''####''''         
             ,#######,   #######,   ,#######,      ##                                
            ,#'     '#,  ##    ##  ,#'     '#,    #''#        ,####,   ,####,        
            ##       ##  ##   ,#'  ##            #'  '#       #'       #'  '#        
            ##       ##  #######   ##           ,######,      #####,   #    #        
            '#,     ,#'  ##    ##  '#,     ,#' ,#      #,     #,   #   #,  ,#        
             '#######'   ##     ##  '#######'  #'      '#     '####' # '####'        



                #########################################################
                #                        -***-                          #
                #          Department of theory and spectroscopy        #
                #                                                       #
                #                      Frank Neese                      #
                #                                                       #
                #     Directorship, Architecture, Infrastructure        #
                #                    SHARK, DRIVERS                     #
                #        Core code/Algorithms in most modules           #
                #                                                       #
                #        Max Planck Institute fuer Kohlenforschung      #
                #                Kaiser Wilhelm Platz 1                 #
                #                 D-45470 Muelheim/Ruhr                 #
                #                      Germany                          #
                #                                                       #
                #                  All rights reserved                  #
                #                        -***-                          #
                #########################################################


                         Program Version 6.0.1  -  RELEASE   -


 With contributions from (in alphabetic order):
[Max-Planck-Institut fuer Kohlenforschung]                               
  Daniel Aravena         : Magnetic Suceptibility                        
  Michael Atanasov       : Ab Initio Ligand Field Theory (pilot matlab implementation)
  Alexander A. Auer      : GIAO ZORA, VPT2 properties, NMR spectrum      
  Ute Becker             : All parallelization in ORCA, NUMFREQ, NUMCALC 
  Giovanni Bistoni       : ED, misc. LED, open-shell LED, HFLD           
  Martin Brehm           : Molecular dynamics                            
  Dmytro Bykov           : pre 5.0 version of the SCF Hessian            
  Marcos Casanova-Páez   : Triplet and SCS-CIS(D). UHF-(DLPNO)-IP/EA/STEOM-CCSD. UHF-CVS-IP/STEOM-CCSD   
  Vijay G. Chilkuri      : MRCI spin determinant printing, contributions to CSF-ICE 
  Pauline Colinet        : FMM embedding                                 
  Dipayan Datta          : RHF DLPNO-CCSD density                        
  Achintya Kumar Dutta   : EOM-CC, STEOM-CC                              
  Nicolas Foglia         : Exact transition moments, OPA infrastructure, MCD improvements    
  Dmitry Ganyushin       : Spin-Orbit,Spin-Spin,Magnetic field MRCI      
  Miquel Garcia-Rates    : C-PCM and meta-GGA Hessian, CCSD/C-PCM, Gaussian charge scheme 
  Tiago L. C. Gouveia    : GS-ROHF, GS-ROCIS                             
  Yang Guo               : DLPNO-NEVPT2, F12-NEVPT2, CIM, IAO-localization        
  Andreas Hansen         : Spin unrestricted coupled pair/coupled cluster methods 
  Ingolf Harden          : AUTO-CI MPn and infrastructure                
  Benjamin Helmich-Paris : MC-RPA, TRAH-(SCF,CASSCF), AVAS, COSX integrals, SCF dyn. polar. 
  Lee Huntington         : MR-EOM, pCC                                   
  Robert Izsak           : Overlap fitted RIJCOSX, COSX-SCS-MP3, EOM     
  Riya Kayal             : Wick's Theorem for AUTO-CI, AUTO-CI UHF-CCSDT 
  Emily Kempfer          : AUTO-CI, RHF CISDT and CCSDT                  
  Christian Kollmar      : KDIIS, OOCD, Brueckner-CCSD(T), CCSD density, CASPT2, CASPT2-K, improved NEVPT2 
  Axel Koslowski         : Symmetry handling                             
  Simone Kossmann        : meta-GGA functionals, TD-DFT gradient, OOMP2, (MP2 Hessian; deprecated post 5.0) 
  Lucas Lang             : DCDCAS                                        
  Marvin Lechner         : AUTO-CI (C++ implementation), FIC-MRCC        
  Spencer Leger          : CASSCF response                               
  Dagmar Lenk            : GEPOL surface, SMD, ORCA-2-JSON               
  Dimitrios Liakos       : Extrapolation schemes; Compound Job, initial MDCI parallelization 
  Dimitrios Manganas     : Further ROCIS development; embedding schemes. LFT, Crystal Embedding 
  Dimitrios Pantazis     : SARC Basis sets                               
  Anastasios Papadopoulos: AUTO-CI, single reference methods and gradients 
  Taras Petrenko         : pre 6.0 DFT Hessian and TD-DFT gradient, (ASA, deprecated), ECA, 1-Electron XAS/XES, NRVS 
  Peter Pinski           : DLPNO-MP2, DLPNO-MP2 Gradient                 
  Christoph Reimann      : Effective Core Potentials                     
  Marius Retegan         : Local ZFS, SOC                                
  Christoph Riplinger    : Optimizer, TS searches, QM/MM, DLPNO-CCSD(T), (RO)-DLPNO pert. Triples 
  Michael Roemelt        : Original ROCIS implementation                 
  Masaaki Saitow         : Open-shell DLPNO-CCSD energy and density      
  Barbara Sandhoefer     : DKH picture change effects                    
  Kantharuban Sivalingam : CASSCF convergence/infrastructure, NEVPT2 and variants, FIC-MRCI 
  Bernardo de Souza      : ESD, SOC TD-DFT                               
  Georgi L. Stoychev     : AutoAux, RI-MP2 NMR, DLPNO-MP2 response, X2C  
  Van Anh Tran           : RI-MP2 g-tensors                              
  Willem Van den Heuvel  : Paramagnetic NMR                              
  Zikuan Wang            : NOTCH, Electric field optimization            
  Frank Wennmohs         : Technical directorship and infrastructure     
  Hang Xu                : AUTO-CI-Response properties                   
                                                                         
[FACCTs GmbH]                                                            
  Markus Bursch, Miquel Garcia-Rates, Christoph Riplinger, Bernardo de Souza, Georgi L. Stoychev 
                                                                 
  APM, Basis sets (HGBS, AHGBS, def-TZVP (Ac-Lr), def2-XVPD (La-Lu)), CI-OPT, improved COSX, DLPNO-Multilevel,           
  DOCKER, DRACO, updates on ESD, GOAT, IRC, LR-CPCM, MBIS, meta-GGA TD-DFT gradient, ML-optimized integration grids, 
  MM, NACMEs, nearIR, NEB, NEB-TS, NL-DFT gradient (VV10), 2- and 3-layer-ONIOM, interface openCOSMO-RS, QMMM,   
  Crystal-QMMM, SF, symmetry and pop. for TD-DFT, r2SCAN hybrids, SOLVATOR                                   
                                                                         
[Other institutions]                                                     
  V. Asgeirsson          : NEB                                           
  Christoph Bannwarth    : sTDA-DFT, sTD-DFT, PBEh-3c, B97-3c, D3        
  Sebastian Ehlert       : rSCAN, r2SCAN, r2SCAN-3c, D4, dhf basis sets  
  Marvin Friede          : D4 for Fr, Ra, Ac-Lr                          
  Lars Goerigk           : TD-DFT with DH, B97 family of functionals     
  Stefan Grimme          : VdW corrections, initial TS optimization, DFT functionals, gCP, sTDA/sTD-DF 
  Waldemar Hujo          : DFT-NL                                        
  H. Jonsson             : NEB                                           
  Holger Kruse           : gCP                                           
  Marcel Mueller         : wB97X-3c, vDZP basis set                      
  Hagen Neugebauer       : wr2SCAN                                       
  Tobias Risthaus        : range-separated hybrid DFT                    
  Lukas Wittmann         : regularized MP2, r2SCAN double-hybrids, wr2SCAN        
                                                                         
We gratefully acknowledge several colleagues who have allowed us to      
interface, adapt or use parts of their codes:                            
  Ed Valeev, F. Pavosevic, A. Kumar             : LibInt (2-el integral package), F12 methods 
  Garnet Chan, S. Sharma, J. Yang, R. Olivares  : DMRG                   
  Ulf Ekstrom                                   : XCFun DFT Library      
  Mihaly Kallay                                 : mrcc  (arbitrary order and MRCC methods)
  Frank Weinhold                                : gennbo (NPA and NBO analysis)           
  Simon Mueller                                 : openCOSMO-RS                            
  Christopher J. Cramer and Donald G. Truhlar   : smd solvation model                     
  S Lehtola, MJT Oliveira, MAL Marques          : LibXC Library                           
  Liviu Ungur et al                             : ANISO software                          


 Your calculation uses the libint2 library for the computation of 2-el integrals
 For citations please refer to: http://libint.valeyev.net

 Your ORCA version has been built with support for libXC version: 6.2.2
 For citations please refer to: https://libxc.gitlab.io

 This ORCA versions uses:
   CBLAS   interface :  Fast vector & matrix operations
   LAPACKE interface :  Fast linear algebra routines
   SCALAPACK package :  Parallel linear algebra routines
   Shared memory     :  Shared parallel matrices
   BLAS/LAPACK       :  OpenBLAS 0.3.27  USE64BITINT DYNAMIC_ARCH NO_AFFINITY SkylakeX SINGLE_THREADED
        Core in use  :  SkylakeX
   Copyright (c) 2011-2014, The OpenBLAS Project


NOTE: MaxCore=3000 MB was set to SCF,MP2,MDCI,CIPSI,MRCI and CIS
      => If you want to overwrite this, your respective input block should be placed after the MaxCore statement


***************************************
The coordinates will be read from file: start.xyz
***************************************


Your calculation utilizes the atom-pairwise dispersion correction
with the Becke-Johnson damping scheme (D3BJ)


================================================================================

----- Orbital basis set information -----
Your calculation utilizes the basis: def2-SVP
   F. Weigend and R. Ahlrichs, Phys. Chem. Chem. Phys. 7, 3297 (2005).

----- AuxJ basis set information -----
Your calculation utilizes the auxiliary basis: def2/J
   F. Weigend, Phys. Chem. Chem. Phys. 8, 1057 (2006).

================================================================================
                                        WARNINGS
                       Please study these warnings very carefully!
================================================================================


WARNING: Geometry Optimization
  ===> : Switching off AutoStart
         For restart on a previous wavefunction, please use MOREAD

WARNING: The chosen methods will break translational/rotational symmetry
  ===> : Will NOT project out the translational and rotational degrees of freedom
         of the Hessians, in case Hessians are calculated!

WARNING: The chosen methods will break translational symmetry
  ===> : Will NOT exploit translational invariance of the Hessians,
         in case Hessians are calculated!

WARNING: The chosen methods will break translational symmetry
  ===> : Will NOT make the numerical gradients translationally invariant,
         in case numerical gradients are calculated!

================================================================================
                                       INPUT FILE
================================================================================
NAME = job.inp
|  1> ! B3LYP D3BJ def2-SVP def2/J RIJCOSX CPCM TightSCF Opt
|  2> %maxcore 3000
|  3> %pal nprocs 8 end
|  4> %cpcm epsilon 4.0 end
|  5> %scf MaxIter 300 end
|  6> %geom
|  7>    coordsys cartesian
|  8>    Calc_Hess true
|  9>    Recalc_Hess 5
| 10>    MaxIter 60
| 11> end
| 12> %pointcharges "design.pc"
| 13> * xyzfile -2 1 start.xyz
| 14> 
| 15>                          ****END OF INPUT****
================================================================================

                       *****************************
                       * Geometry Optimization Run *
                       *****************************

Geometry optimization settings:
Update method            Update   .... BFGS
Choice of coordinates    CoordSys .... Cartesian
Initial Hessian          InHess   .... Almloef's Model
Max. no of cycles        MaxIter  .... 60

Convergence Tolerances:
Energy Change            TolE     ....  5.0000e-06 Eh
Max. Gradient            TolMAXG  ....  3.0000e-04 Eh/bohr
RMS Gradient             TolRMSG  ....  1.0000e-04 Eh/bohr
Max. Displacement        TolMAXD  ....  4.0000e-03 bohr
RMS Displacement         TolRMSD  ....  2.0000e-03 bohr
Strict Convergence                .... False

------------------------------------------------------------------------------
                        ORCA OPTIMIZATION COORDINATE SETUP
------------------------------------------------------------------------------

The optimization will be done in Cartesian displacement coordinates
Initial hessian                         .... (will be read on the fly)  done
Number of atoms                         .... 24
Number of degrees of freedom            .... 72
Constrained atoms:                      

         *************************************************************
         *                GEOMETRY OPTIMIZATION CYCLE   1            *
         *************************************************************
---------------------------------
CARTESIAN COORDINATES (ANGSTROEM)
---------------------------------
  C     60.111938   34.383969   57.210132
  H     60.607199   33.429939   57.384609
  H     60.724693   35.271818   57.059193
  C     58.780577   34.503532   57.151958
  C     58.092182   35.834261   56.893354
  O     58.812467   36.818218   56.578789
  O     56.839549   35.848917   57.009617
  O     57.934615   33.426403   57.345998
  C     57.676936   32.537732   56.200806
  H     57.019017   31.763769   56.624072
  C     58.986487   31.961840   55.793172
  H     59.463930   31.242983   56.460496
  C     59.683105   32.482671   54.768151
  C     59.064321   33.483709   53.893179
  H     59.702361   33.904544   53.110969
  C     57.781253   33.865659   54.031533
  H     57.332181   34.602354   53.356629
  C     56.889799   33.271093   55.086182
  H     56.347190   34.090648   55.585880
  O     55.962863   32.397707   54.434668
  H     55.310845   32.109527   55.092770
  C     61.123200   32.062126   54.534208
  O     61.784962   31.702328   55.543381
  O     61.541071   32.106513   53.352738

----------------------------
CARTESIAN COORDINATES (A.U.)
----------------------------
  NO LB      ZA    FRAG     MASS         X           Y           Z
   0 C     6.0000    0    12.011  113.595100   64.976285  108.111482
   1 H     1.0000    0     1.008  114.531008   63.173429  108.441195
   2 H     1.0000    0     1.008  114.753039   66.654076  107.826248
   3 C     6.0000    0    12.011  111.079193   65.202226  108.001549
   4 C     6.0000    0    12.011  109.778315   67.716940  107.512858
   5 O     8.0000    0    15.999  111.139456   69.576349  106.918416
   6 O     8.0000    0    15.999  107.411181   67.744635  107.732563
   7 O     8.0000    0    15.999  109.480556   63.166747  108.368231
   8 C     6.0000    0    12.011  108.993613   61.487402  106.204132
   9 H     1.0000    0     1.008  107.750327   60.024824  107.003989
  10 C     6.0000    0    12.011  111.468306   60.399124  105.433815
  11 H     1.0000    0     1.008  112.370543   59.040681  106.694875
  12 C     6.0000    0    12.011  112.784723   61.383352  103.496806
  13 C     6.0000    0    12.011  111.615391   63.275040  101.843349
  14 H     1.0000    0     1.008  112.821112   64.070303  100.365186
  15 C     6.0000    0    12.011  109.190744   63.996821  102.104800
  16 H     1.0000    0     1.008  108.342121   65.388973  100.829416
  17 C     6.0000    0    12.011  107.506140   62.873254  104.097798
  18 H     1.0000    0     1.008  106.480758   64.421988  105.042090
  19 O     8.0000    0    15.999  105.754485   61.222794  102.866615
  20 H     1.0000    0     1.008  104.522349   60.678212  104.110247
  21 C     6.0000    0    12.011  115.506108   60.588637  103.054718
  22 O     8.0000    0    15.999  116.756657   59.908718  104.961779
  23 O     8.0000    0    15.999  116.295770   60.672517  100.822063

--------------------------------
INTERNAL COORDINATES (ANGSTROEM)
--------------------------------
 C      0   0   0     0.000000000000     0.00000000     0.00000000
 H      1   0   0     1.088989863383     0.00000000     0.00000000
 H      1   2   0     1.089278255795   118.71371059     0.00000000
 C      1   2   3     1.337984169400   122.53333633   178.86021439
 C      4   1   2     1.520395795930   122.42129410   180.67352117
 O      5   4   1     1.259338317649   117.86430047     7.98397869
 O      5   4   1     1.258102267780   116.44144955   187.69788882
 O      4   1   2     1.383296826312   122.19798630     1.79734009
 C      8   4   1     1.472276920333   117.90009257   277.32119882
 H      9   8   4     1.100468192492   103.29579790   178.09067811
 C      9   8   4     1.487528451903   107.02309521    60.79280321
 H     11   9   8     1.090884286106   118.21513549    69.64465314
 C     11   9   8     1.344324967754   121.00718757   261.74112609
 C     13  11   9     1.466474246922   120.04938653   349.80769557
 H     14  13  11     1.093640536431   116.31112146   176.92324750
 C     14  13  11     1.345842161786   122.32101579   356.58249340
 H     16  14  13     1.095390612259   121.22306820   181.08159495
 C     16  14  13     1.503490430855   121.67821129   359.07517439
 H     18  16  14     1.102630044988   108.40569783   133.99480188
 O     18  16  14     1.430553719819   107.82773122   252.99945495
 H     20  18  16     0.970192469115   107.93143701   187.73461727
 C     13  11   9     1.518374470708   120.10913882   168.27919774
 O     22  13  11     1.259290947072   117.00532896   331.47810903
 O     22  13  11     1.253976769845   116.83473561   151.49408336

---------------------------
INTERNAL COORDINATES (A.U.)
---------------------------
 C      0   0   0     0.000000000000     0.00000000     0.00000000
 H      1   0   0     2.057892604409     0.00000000     0.00000000
 H      1   2   0     2.058437587087   118.71371059     0.00000000
 C      1   2   3     2.528423651689   122.53333633   178.86021439
 C      4   1   2     2.873131669473   122.42129410   180.67352117
 O      5   4   1     2.379804530310   117.86430047     7.98397869
 O      5   4   1     2.377468734570   116.44144955   187.69788882
 O      4   1   2     2.614052163652   122.19798630     1.79734009
 C      8   4   1     2.782200172723   117.90009257   277.32119882
 H      9   8   4     2.079583502901   103.29579790   178.09067811
 C      9   8   4     2.811021390513   107.02309521    60.79280321
 H     11   9   8     2.061472544539   118.21513549    69.64465314
 C     11   9   8     2.540406024047   121.00718757   261.74112609
 C     13  11   9     2.771234709130   120.04938653   349.80769557
 H     14  13  11     2.066681102809   116.31112146   176.92324750
 C     14  13  11     2.543273105260   122.32101579   356.58249340
 H     16  14  13     2.069988266838   121.22306820   181.08159495
 C     16  14  13     2.841185159288   121.67821129   359.07517439
 H     18  16  14     2.083668812060   108.40569783   133.99480188
 O     18  16  14     2.703354750320   107.82773122   252.99945495
 H     20  18  16     1.833398063821   107.93143701   187.73461727
 C     13  11   9     2.869311918377   120.10913882   168.27919774
 O     22  13  11     2.379715012892   117.00532896   331.47810903
 O     22  13  11     2.369672673306   116.83473561   151.49408336

---------------------
BASIS SET INFORMATION
---------------------
There are 3 groups of distinct atoms

 Group   1 Type C   : 7s4p1d contracted to 3s2p1d pattern {511/31/1}
 Group   2 Type H   : 4s1p contracted to 2s1p pattern {31/1}
 Group   3 Type O   : 7s4p1d contracted to 3s2p1d pattern {511/31/1}

Atom   0C    basis set group =>   1
Atom   1H    basis set group =>   2
Atom   2H    basis set group =>   2
Atom   3C    basis set group =>   1
Atom   4C    basis set group =>   1
Atom   5O    basis set group =>   3
Atom   6O    basis set group =>   3
Atom   7O    basis set group =>   3
Atom   8C    basis set group =>   1
Atom   9H    basis set group =>   2
Atom  10C    basis set group =>   1
Atom  11H    basis set group =>   2
Atom  12C    basis set group =>   1
Atom  13C    basis set group =>   1
Atom  14H    basis set group =>   2
Atom  15C    basis set group =>   1
Atom  16H    basis set group =>   2
Atom  17C    basis set group =>   1
Atom  18H    basis set group =>   2
Atom  19O    basis set group =>   3
Atom  20H    basis set group =>   2
Atom  21C    basis set group =>   1
Atom  22O    basis set group =>   3
Atom  23O    basis set group =>   3
---------------------------------
AUXILIARY/J BASIS SET INFORMATION
---------------------------------
There are 3 groups of distinct atoms

 Group   1 Type C   : 12s5p4d2f1g contracted to 6s4p3d1f1g pattern {711111/2111/211/2/1}
 Group   2 Type H   : 5s2p1d contracted to 3s1p1d pattern {311/2/1}
 Group   3 Type O   : 12s5p4d2f1g contracted to 6s4p3d1f1g pattern {711111/2111/211/2/1}

Atom   0C    basis set group =>   1
Atom   1H    basis set group =>   2
Atom   2H    basis set group =>   2
Atom   3C    basis set group =>   1
Atom   4C    basis set group =>   1
Atom   5O    basis set group =>   3
Atom   6O    basis set group =>   3
Atom   7O    basis set group =>   3
Atom   8C    basis set group =>   1
Atom   9H    basis set group =>   2
Atom  10C    basis set group =>   1
Atom  11H    basis set group =>   2
Atom  12C    basis set group =>   1
Atom  13C    basis set group =>   1
Atom  14H    basis set group =>   2
Atom  15C    basis set group =>   1
Atom  16H    basis set group =>   2
Atom  17C    basis set group =>   1
Atom  18H    basis set group =>   2
Atom  19O    basis set group =>   3
Atom  20H    basis set group =>   2
Atom  21C    basis set group =>   1
Atom  22O    basis set group =>   3
Atom  23O    basis set group =>   3


           ************************************************************
           *        Program running with 8 parallel MPI-processes     *
           *              working on a common directory               *
           ************************************************************
------------------------------------------------------------------------------
                             ORCA STARTUP CALCULATIONS
                           -- RI-GTO INTEGRALS CHOSEN --
------------------------------------------------------------------------------
------------------------------------------------------------------------------
                   ___                                                        
                  /   \      - P O W E R E D   B Y -                         
                 /     \                                                     
                 |  |  |   _    _      __       _____    __    __             
                 |  |  |  | |  | |    /  \     |  _  \  |  |  /  |          
                  \  \/   | |  | |   /    \    | | | |  |  | /  /          
                 / \  \   | |__| |  /  /\  \   | |_| |  |  |/  /          
                |  |  |   |  __  | /  /__\  \  |    /   |      \           
                |  |  |   | |  | | |   __   |  |    \   |  |\   \          
                \     /   | |  | | |  |  |  |  | |\  \  |  | \   \       
                 \___/    |_|  |_| |__|  |__|  |_| \__\ |__|  \__/        
                                                                              
                      - O R C A' S   B I G   F R I E N D -                    
                                      &                                       
                       - I N T E G R A L  F E E D E R -                       
                                                                              
 v1 FN, 2020, v2 2021, v3 2022-2024                                           
------------------------------------------------------------------------------


----------------------
SHARK INTEGRAL PACKAGE
----------------------

Number of atoms                             ...     24
Number of basis functions                   ...    264
Number of shells                            ...    120
Maximum angular momentum                    ...      2
Integral batch strategy                     ... SHARK/LIBINT Hybrid
RI-J (if used) integral strategy            ... SPLIT-RIJ (Revised 2003 algorithm where possible)
Printlevel                                  ...      1
Contraction scheme used                     ... SEGMENTED contraction
Prescreening option                         ... SCHWARTZ
   Thresh                                   ... 2.500e-11
   Tcut                                     ... 2.500e-12
   Tpresel                                  ... 2.500e-12 
Coulomb Range Separation                    ... NOT USED
Exchange Range Separation                   ... NOT USED
Multipole approximations                    ... NOT USED
Finite Nucleus Model                        ... NOT USED
CABS basis                                  ... NOT available
Auxiliary Coulomb fitting basis             ... AVAILABLE
   # of basis functions in Aux-J            ...    872
   # of shells in Aux-J                     ...    280
   Maximum angular momentum in Aux-J        ...      4
Auxiliary J/K fitting basis                 ... NOT available
Auxiliary Correlation fitting basis         ... NOT available
Auxiliary 'external' fitting basis          ... NOT available

Checking pre-screening integrals            ... done (  0.0 sec) Dimension = 120
Check shell pair data                       ... done (  0.0 sec)
Shell pair information
Shell pair cut-off parameter TPreSel        ...   2.5e-12
Total number of shell pairs                 ...      7260
Shell pairs after pre-screening             ...      6312
Total number of primitive shell pairs       ...     27260
Primitive shell pairs kept                  ...     15769
          la=0 lb=0:   1793 shell pairs
          la=1 lb=0:   2271 shell pairs
          la=1 lb=1:    756 shell pairs
          la=2 lb=0:    837 shell pairs
          la=2 lb=1:    551 shell pairs
          la=2 lb=2:    104 shell pairs

Reading point charge file                   ... ok (4 point charges)
Calculating one electron integrals          ... done (  0.0 sec)
Calculating RI/J V-Matrix + Cholesky decomp.... done (  0.3 sec)
Calculating Nuclear repulsion               ... (+Point charges) done (  0.0 sec) ENN=   1094.345320165330 Eh

Diagonalization of the overlap matrix:
Smallest eigenvalue                        ... 4.683e-04
Time for diagonalization                   ...    0.011 sec
Threshold for overlap eigenvalues          ... 1.000e-07
Number of eigenvalues below threshold      ... 0
Time for construction of square roots      ...    0.048 sec
Total time needed                          ...    0.072 sec

-------------------
DFT GRID GENERATION
-------------------

General Integration Accuracy     IntAcc      ... 4.388
Radial Grid Type                 RadialGrid  ... OptM3 with GC (2021)
Angular Grid (max. ang.)         AngularGrid ... 4 (Lebedev-302)
Angular grid pruning method      GridPruning ... 4 (adaptive)
Weight generation scheme         WeightScheme... mBecke (2022)
Basis function cutoff            BFCut       ... 1.0000e-11
Integration weight cutoff        WCut        ... 1.0000e-14
Partially contracted basis set               ... off
Rotationally invariant grid construction     ... off
Angular grids for H and He will be reduced by one unit

Total number of grid points                  ...   121630
Total number of batches                      ...     1912
Average number of points per batch           ...       63
Average number of grid points per atom       ...     5068

--------------------
COSX GRID GENERATION
--------------------

GRIDX 1
-------
General Integration Accuracy     IntAcc      ... 3.816
Radial Grid Type                 RadialGrid  ... OptM3 with GC (2021)
Angular Grid (max. ang.)         AngularGrid ... 1 (Lebedev-50)
Angular grid pruning method      GridPruning ... 4 (adaptive)
Weight generation scheme         WeightScheme... mBecke (2022)
Basis function cutoff            BFCut       ... 1.0000e-11
Integration weight cutoff        WCut        ... 1.0000e-14
Partially contracted basis set               ... on
Rotationally invariant grid construction     ... off
Angular grids for H and He will be reduced by one unit

Total number of grid points                  ...    15403
Total number of batches                      ...      134
Average number of points per batch           ...      114
Average number of grid points per atom       ...      642
UseSFitting                                  ... on

GRIDX 2
-------
General Integration Accuracy     IntAcc      ... 4.020
Radial Grid Type                 RadialGrid  ... OptM3 with GC (2021)
Angular Grid (max. ang.)         AngularGrid ... 2 (Lebedev-110)
Angular grid pruning method      GridPruning ... 4 (adaptive)
Weight generation scheme         WeightScheme... mBecke (2022)
Basis function cutoff            BFCut       ... 1.0000e-11
Integration weight cutoff        WCut        ... 1.0000e-14
Partially contracted basis set               ... on
Rotationally invariant grid construction     ... off
Angular grids for H and He will be reduced by one unit

Total number of grid points                  ...    34411
Total number of batches                      ...      281
Average number of points per batch           ...      122
Average number of grid points per atom       ...     1434
UseSFitting                                  ... on

GRIDX 3
-------
General Integration Accuracy     IntAcc      ... 4.338
Radial Grid Type                 RadialGrid  ... OptM3 with GC (2021)
Angular Grid (max. ang.)         AngularGrid ... 3 (Lebedev-194)
Angular grid pruning method      GridPruning ... 4 (adaptive)
Weight generation scheme         WeightScheme... mBecke (2022)
Basis function cutoff            BFCut       ... 1.0000e-11
Integration weight cutoff        WCut        ... 1.0000e-14
Partially contracted basis set               ... on
Rotationally invariant grid construction     ... off
Angular grids for H and He will be reduced by one unit

Total number of grid points                  ...    75571
Total number of batches                      ...      603
Average number of points per batch           ...      125
Average number of grid points per atom       ...     3149
UseSFitting                                  ... on
Initializing property integral containers    ... done (  0.0 sec)

SHARK setup successfully completed in   4.7 seconds

Maximum memory used throughout the entire STARTUP-calculation: 33.9 MB


           ************************************************************
           *        Program running with 8 parallel MPI-processes     *
           *              working on a common directory               *
           ************************************************************
-------------------------------------------------------------------------------
                                 ORCA GUESS
                   Start orbitals & Density for SCF / CASSCF
-------------------------------------------------------------------------------

------------
SCF SETTINGS
------------
Hamiltonian:
 Density Functional     Method          .... DFT(GTOs)
 Exchange Functional    Exchange        .... B88
   X-Alpha parameter    XAlpha          ....  0.666667
   Becke's b parameter  XBeta           ....  0.004200
 Correlation Functional Correlation     .... LYP
 LDA part of GGA corr.  LDAOpt          .... VWN-5
 Gradients option       PostSCFGGA      .... off
 Hybrid DFT is turned on
   Fraction HF Exchange ScalHFX         ....  0.200000
   Scaling of DF-GGA-X  ScalDFX         ....  0.720000
   Scaling of DF-GGA-C  ScalDFC         ....  0.810000
   Scaling of DF-LDA-C  ScalLDAC        ....  1.000000
   Perturbative correction              ....  0.000000
   NL short-range parameter             ....  4.800000
 RI-approximation to the Coulomb term is turned on
   Number of AuxJ basis functions       .... 872
   RIJ-COSX (HFX calculated with COS-X)).... on


General Settings:
 Integral files         IntName         .... job
 Hartree-Fock type      HFTyp           .... RHF
 Total Charge           Charge          ....   -2
 Multiplicity           Mult            ....    1
 Number of Electrons    NEL             ....  118
 Basis Dimension        Dim             ....  264
 Nuclear Repulsion      ENuc            ....   1094.3453201653 Eh

Convergence Acceleration:
 AO-DIIS                CNVDIIS         .... on
   Start iteration      DIISMaxIt       ....    12
   Startup error        DIISStart       ....  0.200000
   # of expansion vecs  DIISMaxEq       ....     5
   Bias factor          DIISBfac        ....   1.050
   Max. coefficient     DIISMaxC        ....  10.000
 MO-DIIS                CNVKDIIS        .... off
 Trust-Rad. Augm. Hess. CNVTRAH         .... auto
   Auto Start mean grad. ratio tolernc. ....  1.125000
   Auto Start start iteration           ....    50
   Auto Start num. interpolation iter.  ....    10
   Max. Number of Micro iterations      ....    24
   Max. Number of Macro iterations      .... Maxiter - #DIIS iter
   Number of Davidson start vectors     ....     2
   Converg. threshold    (grad. norm)   ....   1.000e-05
   Grad. Scal. Fac. for Micro threshold ....   0.100
   Minimum threshold for Micro iter.    ....   1.000e-02
   NR start threshold (gradient norm)   ....   1.000e-04
   Initial trust radius                 ....   0.400
   Minimum AH scaling param. (alpha)    ....   1.000
   Maximum AH scaling param. (alpha)    .... 1000.000
   Quad. conv. algorithm                .... NR
   White noise on init. David. guess    .... on
   Maximum white noise                  ....   0.010
   Pseudo random numbers                .... off
   Inactive MOs                         .... canonical
   Orbital update algorithm             .... Taylor
   Preconditioner                       .... Diag
   Full preconditioner red. dimension   ....   250
 SOSCF                  CNVSOSCF        .... on
   Start iteration      SOSCFMaxIt      ....   150
   Startup grad/error   SOSCFStart      ....  0.003300
   Hessian update       SOSCFHessUp     .... L-BFGS
 Level Shifting         CNVShift        .... on
   Level shift para.    LevelShift      ....    0.2500
   Turn off err/grad.   ShiftErr        ....    0.0010
 Zerner damping         CNVZerner       .... off
 Static damping         CNVDamp         .... on
   Fraction old density DampFac         ....    0.7000
   Max. Damping (<1)    DampMax         ....    0.9800
   Min. Damping (>=0)   DampMin         ....    0.0000
   Turn off err/grad.   DampErr         ....    0.1000

SCF Procedure:
 Maximum # iterations   MaxIter         ....   300
 SCF integral mode      SCFMode         .... Direct
   Integral package                     .... SHARK and LIBINT hybrid scheme
 Reset frequency        DirectResetFreq ....    20
 Integral Threshold     Thresh          ....  2.500e-11 Eh
 Primitive CutOff       TCut            ....  2.500e-12 Eh

Convergence Tolerance:
 Convergence Check Mode ConvCheckMode   .... Total+1el-Energy
 Convergence forced     ConvForced      .... 0
 Energy Change          TolE            ....  1.000e-08 Eh
 1-El. energy change                    ....  1.000e-05 Eh
 Orbital Gradient       TolG            ....  1.000e-05
 Orbital Rotation angle TolX            ....  1.000e-05
 DIIS Error             TolErr          ....  5.000e-07

------------------------------
INITIAL GUESS: MODEL POTENTIAL
------------------------------
Loading Hartree-Fock densities                     ... done
Calculating cut-offs                               ... done
Initializing the effective Hamiltonian             ... done
Setting up the integral package (SHARK)            ... done
Starting the Coulomb interaction                   ... done (   0.2 sec)
Making the grid                                    ... done (   0.5 sec)
Mapping shells                                     ... done
Starting the XC term evaluation                    ... done (   0.1 sec)
  promolecular density results
     # of electrons  =    115.995184324
     EX              =   -102.842458325
     EC              =     -4.058902881
     EX+EC           =   -106.901361206
Transforming the Hamiltonian                       ... done (   0.0 sec)
Diagonalizing the Hamiltonian                      ... done (   0.0 sec)
Back transforming the eigenvectors                 ... done (   0.0 sec)
Now organizing SCF variables                       ... done
                      ------------------
                      INITIAL GUESS DONE (   0.9 sec)
                      ------------------
             **** ENERGY FILE WAS UPDATED (job.en.tmp) ****
Finished Guess after   1.7 sec
Maximum memory used throughout the entire GUESS-calculation: 20.0 MB


           ************************************************************
           *        Program running with 8 parallel MPI-processes     *
           *              working on a common directory               *
           ************************************************************

-------------------------------------------------------------------------------------------
                                      ORCA LEAN-SCF
                              memory conserving SCF solver
-------------------------------------------------------------------------------------------

--------------------
CPCM SOLVATION MODEL
--------------------
CPCM parameters:
  Epsilon                                         ...       4.0000
  Refrac                                          ...       1.3300
  Rsolv                                           ...       1.3000
  Surface type                                    ... GAUSSIAN VDW
  Discretization scheme                           ... Constant charge density
    Threshold for H atoms                         ...       5.0000 (charges/Ang^2)
    Threshold for non-H atoms                     ...       5.0000 (charges/Ang^2)
  Epsilon function type                           ...         CPCM
Solvent:                                          ... CUSTOM
Radii:
  Scheme                                          ... Element-dependent radii
  Radius for C  used is    3.8550 Bohr (=   2.0400 Ang.)
  Radius for H  used is    2.4944 Bohr (=   1.3200 Ang.)
  Radius for O  used is    3.4469 Bohr (=   1.8240 Ang.)
Calculating surface                               ...        done! (  0.0s)
Cavity surface points                             ...         2123
Cavity Volume                                     ...    1726.4932
Cavity Surface-area                               ...     858.3516
Calculating surface distance matrix               ...        done! (  0.0s)
Performing Cholesky decomposition & store         ...        done! (  0.8s)
Overall time for CPCM initialization              ...                 0.9s

----------------------------------------D-I-I-S--------------------------------------------
Iteration    Energy (Eh)           Delta-E    RMSDP     MaxDP     DIISErr   Damp  Time(sec)
-------------------------------------------------------------------------------------------
               ***  Starting incremental Fock matrix formation  ***
    1    -833.9475283154022236     0.00e+00  8.59e-03  3.85e-01  3.94e-01  0.700   3.5
Warning: op=0 Small HOMO/LUMO gap (  -0.315) - skipping pre-diagonalization
         LevelShift set to 0.415 Eh
         Will do a full diagonalization
    2    -834.9741730667544743    -1.03e+00  4.82e-03  1.42e-01  1.30e-01  0.700   2.4
                               ***Turning on AO-DIIS***
    3    -835.0693685785715843    -9.52e-02  3.09e-03  8.58e-02  1.81e-01  0.700   2.6
    4    -835.1831646379862377    -1.14e-01  2.55e-03  9.66e-02  1.98e-01  0.700   2.1
    5    -835.3631412424838345    -1.80e-01  2.09e-03  8.23e-02  1.77e-01  0.700   2.1
    6    -835.5225998876489939    -1.59e-01  1.71e-03  6.53e-02  1.47e-01  0.700   2.0
    7    -835.6466058240980601    -1.24e-01  1.51e-03  5.37e-02  1.19e-01  0.700   2.2
    8    -835.7436482530624744    -9.70e-02  1.36e-03  5.97e-02  8.50e-02  0.700   2.1
    9    -835.8151207309192614    -7.15e-02  3.50e-03  1.49e-01  5.40e-02  0.000   2.2
   10    -835.9754040224843266    -1.60e-01  4.32e-04  1.47e-02  9.19e-03  0.000   2.1
   11    -835.9770782560663065    -1.67e-03  3.04e-04  1.30e-02  5.07e-03  0.000   2.0
                              *** Initializing SOSCF ***
---------------------------------------S-O-S-C-F--------------------------------------
Iteration    Energy (Eh)           Delta-E    RMSDP     MaxDP     MaxGrad    Time(sec)
--------------------------------------------------------------------------------------
   12    -835.9778907726549733    -8.13e-04  2.32e-04  1.06e-02  3.26e-03     2.1
               *** Restarting incremental Fock matrix formation ***
   13    -835.9784108140345325    -5.20e-04  6.07e-04  1.20e-02  4.27e-03     3.2
   14    -835.9793007494133690    -8.90e-04  1.61e-03  6.90e-02  2.23e-03     3.3
   15    -835.9798199648682839    -5.19e-04  3.27e-04  9.32e-03  3.29e-03     3.4
   16    -835.9800495093688824    -2.30e-04  3.77e-04  1.65e-02  2.27e-03     3.0
   17    -835.9801203118220201    -7.08e-05  2.41e-04  7.37e-03  9.40e-04     3.2
   18    -835.9801876251974591    -6.73e-05  1.24e-04  4.10e-03  2.83e-04     3.0
   19    -835.9801942983476692    -6.67e-06  5.65e-05  2.42e-03  3.18e-04     2.4
   20    -835.9802003800059538    -6.08e-06  2.10e-05  5.15e-04  6.77e-05     2.9
   21    -835.9802008169303917    -4.37e-07  1.93e-05  4.91e-04  6.11e-05     2.7
   22    -835.9802013012774751    -4.84e-07  8.75e-06  2.89e-04  3.24e-05     2.7
   23    -835.9802013893661297    -8.81e-08  6.00e-06  2.01e-04  2.37e-05     2.5
   24    -835.9802014580707237    -6.87e-08  4.58e-06  1.47e-04  1.38e-05     2.6
   25    -835.9802014753338426    -1.73e-08  2.04e-06  4.65e-05  1.09e-05     1.9
   26    -835.9802014761219198    -7.88e-10  1.05e-06  2.68e-05  4.39e-06     2.2
                 **** Energy Check signals convergence ****

               *****************************************************
               *                     SUCCESS                       *
               *           SCF CONVERGED AFTER  26 CYCLES          *
               *****************************************************

Recomputing exchange energy using gridx3       ... done (    4.015 sec)
Old exchange energy                            :    -20.872744511 Eh
New exchange energy                            :    -20.872796104 Eh
Exchange energy change after final integration :     -0.000051592 Eh
Total energy after final integration           :   -835.980253069 Eh
             **** ENERGY FILE WAS UPDATED (job.en.tmp) ****

----------------
TOTAL SCF ENERGY
----------------

Total Energy       :       -835.98025306862155 Eh          -22748.17918 eV

Components:
Nuclear Repulsion  :       1094.34532016533012 Eh           29778.65008 eV
Electronic Energy  :      -1930.10131823686265 Eh          -52520.72697 eV
One Electron Energy:      -3371.95708727662623 Eh          -91755.61711 eV
Two Electron Energy:       1441.85576903976357 Eh           39234.89014 eV
CPCM Dielectric    :         -0.22420340458936 Eh              -6.10088 eV

Virial components:
Potential Energy   :      -1665.50059504056071 Eh          -45320.57524 eV
Kinetic Energy     :        829.52034197193927 Eh           22572.39606 eV
Virial Ratio       :          2.00778752583852

DFT components:
N(Alpha)           :       59.000029481593 electrons
N(Beta)            :       59.000029481593 electrons
N(Total)           :      118.000058963187 electrons
E(X)               :      -83.110754539192 Eh       
E(C)               :       -4.846762281757 Eh       
E(XC)              :      -87.957516820949 Eh       

CPCM Solvation Model Properties:
Surface-charge          :          1.98047292733121
Corrected charge        :          2.00000000000000
Outlying charge corr.   :          0.00001823609421 Eh               0.00050 eV
Free-energy (cav+disp)  :  This term is not implemented in the current solvation scheme

---------------
SCF CONVERGENCE
---------------

  Last Energy change         ...    7.8808e-10  Tolerance :   1.0000e-08
  Last MAX-Density change    ...    2.6811e-05  Tolerance :   1.0000e-07
  Last RMS-Density change    ...    1.0520e-06  Tolerance :   5.0000e-09
  Last DIIS Error            ...    3.2585e-03  Tolerance :   5.0000e-07
  Last Orbital Gradient      ...    4.3910e-06  Tolerance :   1.0000e-05
  Last Orbital Rotation      ...    3.1409e-05  Tolerance :   1.0000e-05


----------------
ORBITAL ENERGIES
----------------

  NO   OCC          E(Eh)            E(eV) 
   0   2.0000     -18.955422      -515.8033 
   1   2.0000     -18.939937      -515.3819 
   2   2.0000     -18.879401      -513.7346 
   3   2.0000     -18.872006      -513.5334 
   4   2.0000     -18.725699      -509.5522 
   5   2.0000     -18.724271      -509.5133 
   6   2.0000     -10.072513      -274.0870 
   7   2.0000     -10.039218      -273.1810 
   8   2.0000     -10.034255      -273.0459 
   9   2.0000     -10.028923      -272.9009 
  10   2.0000      -9.982475      -271.6370 
  11   2.0000      -9.949133      -270.7297 
  12   2.0000      -9.943367      -270.5728 
  13   2.0000      -9.919905      -269.9343 
  14   2.0000      -9.919097      -269.9123 
  15   2.0000      -9.918656      -269.9004 
  16   2.0000      -0.843769       -22.9601 
  17   2.0000      -0.814046       -22.1513 
  18   2.0000      -0.808531       -22.0013 
  19   2.0000      -0.722495       -19.6601 
  20   2.0000      -0.657188       -17.8830 
  21   2.0000      -0.593326       -16.1452 
  22   2.0000      -0.566294       -15.4096 
  23   2.0000      -0.556356       -15.1392 
  24   2.0000      -0.504387       -13.7251 
  25   2.0000      -0.492282       -13.3957 
  26   2.0000      -0.417524       -11.3614 
  27   2.0000      -0.388268       -10.5653 
  28   2.0000      -0.360610        -9.8127 
  29   2.0000      -0.322730        -8.7819 
  30   2.0000      -0.318431        -8.6649 
  31   2.0000      -0.285029        -7.7560 
  32   2.0000      -0.273212        -7.4345 
  33   2.0000      -0.255867        -6.9625 
  34   2.0000      -0.250246        -6.8095 
  35   2.0000      -0.235157        -6.3989 
  36   2.0000      -0.216744        -5.8979 
  37   2.0000      -0.204898        -5.5756 
  38   2.0000      -0.202742        -5.5169 
  39   2.0000      -0.198665        -5.4060 
  40   2.0000      -0.187619        -5.1054 
  41   2.0000      -0.169392        -4.6094 
  42   2.0000      -0.163263        -4.4426 
  43   2.0000      -0.137594        -3.7441 
  44   2.0000      -0.110132        -2.9968 
  45   2.0000      -0.099155        -2.6981 
  46   2.0000      -0.091105        -2.4791 
  47   2.0000      -0.078962        -2.1487 
  48   2.0000      -0.066310        -1.8044 
  49   2.0000      -0.060149        -1.6367 
  50   2.0000      -0.054753        -1.4899 
  51   2.0000      -0.047289        -1.2868 
  52   2.0000      -0.031087        -0.8459 
  53   2.0000      -0.029529        -0.8035 
  54   2.0000      -0.023509        -0.6397 
  55   2.0000       0.021158         0.5757 
  56   2.0000       0.108849         2.9619 
  57   2.0000       0.114572         3.1177 
  58   2.0000       0.132136         3.5956 
  59   0.0000       0.176590         4.8052 
  60   0.0000       0.192163         5.2290 
  61   0.0000       0.223246         6.0748 
  62   0.0000       0.270693         7.3659 
  63   0.0000       0.289738         7.8842 
  64   0.0000       0.300700         8.1825 
  65   0.0000       0.309230         8.4146 
  66   0.0000       0.317624         8.6430 
  67   0.0000       0.327923         8.9232 
  68   0.0000       0.349630         9.5139 
  69   0.0000       0.369555        10.0561 
*Only the first 10 virtual orbitals were printed.

                    ********************************
                    * MULLIKEN POPULATION ANALYSIS *
                    ********************************

-----------------------
MULLIKEN ATOMIC CHARGES
-----------------------
   0 C :    0.013361
   1 H :   -0.024133
   2 H :   -0.004393
   3 C :   -0.050764
   4 C :    0.051853
   5 O :   -0.426503
   6 O :   -0.472274
   7 O :   -0.452206
   8 C :    0.190016
   9 H :   -0.143780
  10 C :   -0.081150
  11 H :   -0.095811
  12 C :   -0.025247
  13 C :    0.067492
  14 H :    0.016311
  15 C :   -0.119874
  16 H :   -0.062408
  17 C :    0.263565
  18 H :   -0.088919
  19 O :   -0.327958
  20 H :    0.130709
  21 C :    0.205984
  22 O :   -0.422672
  23 O :   -0.141200
Sum of atomic charges:   -2.0000000

--------------------------------
MULLIKEN REDUCED ORBITAL CHARGES
--------------------------------
  0 C s       :     3.125645  s :     3.125645
      pz      :     0.990272  p :     2.835965
      px      :     0.980649
      py      :     0.865044
      dz2     :     0.001531  d :     0.025029
      dxz     :     0.005727
      dyz     :     0.000681
      dx2y2   :     0.008203
      dxy     :     0.008887

  1 H s       :     0.999457  s :     0.999457
      pz      :     0.004390  p :     0.024676
      px      :     0.006565
      py      :     0.013721

  2 H s       :     0.980112  s :     0.980112
      pz      :     0.005037  p :     0.024280
      px      :     0.007371
      py      :     0.011873

  3 C s       :     3.171787  s :     3.171787
      pz      :     1.048618  p :     2.812160
      px      :     0.875560
      py      :     0.887982
      dz2     :     0.004911  d :     0.066817
      dxz     :     0.010064
      dyz     :     0.006621
      dx2y2   :     0.021041
      dxy     :     0.024181

  4 C s       :     3.046821  s :     3.046821
      pz      :     0.866148  p :     2.763429
      px      :     0.934745
      py      :     0.962536
      dz2     :     0.009408  d :     0.137897
      dxz     :     0.027239
      dyz     :     0.012893
      dx2y2   :     0.043218
      dxy     :     0.045138

  5 O s       :     3.711676  s :     3.711676
      pz      :     1.531319  p :     4.701048
      px      :     1.641459
      py      :     1.528270
      dz2     :     0.001847  d :     0.013779
      dxz     :     0.001672
      dyz     :     0.002815
      dx2y2   :     0.002824
      dxy     :     0.004621

  6 O s       :     3.721814  s :     3.721814
      pz      :     1.585189  p :     4.737208
      px      :     1.355193
      py      :     1.796825
      dz2     :     0.001598  d :     0.013252
      dxz     :     0.003759
      dyz     :     0.000079
      dx2y2   :     0.005076
      dxy     :     0.002741

  7 O s       :     3.717398  s :     3.717398
      pz      :     1.593302  p :     4.721338
      px      :     1.687001
      py      :     1.441035
      dz2     :     0.002779  d :     0.013471
      dxz     :     0.001957
      dyz     :     0.003381
      dx2y2   :     0.001966
      dxy     :     0.003388

  8 C s       :     2.974459  s :     2.974459
      pz      :     0.870673  p :     2.770962
      px      :     1.018448
      py      :     0.881841
      dz2     :     0.011656  d :     0.064563
      dxz     :     0.012705
      dyz     :     0.018315
      dx2y2   :     0.008736
      dxy     :     0.013152

  9 H s       :     1.123762  s :     1.123762
      pz      :     0.003848  p :     0.020017
      px      :     0.007503
      py      :     0.008667

 10 C s       :     3.177877  s :     3.177877
      pz      :     1.039598  p :     2.870869
      px      :     0.871874
      py      :     0.959397
      dz2     :     0.006021  d :     0.032405
      dxz     :     0.008284
      dyz     :     0.005941
      dx2y2   :     0.005870
      dxy     :     0.006290

 11 H s       :     1.072213  s :     1.072213
      pz      :     0.007104  p :     0.023598
      px      :     0.006836
      py      :     0.009658

 12 C s       :     3.154939  s :     3.154939
      pz      :     0.886117  p :     2.828034
      px      :     1.035949
      py      :     0.905968
      dz2     :     0.009392  d :     0.042274
      dxz     :     0.009716
      dyz     :     0.006899
      dx2y2   :     0.007410
      dxy     :     0.008858

 13 C s       :     3.229837  s :     3.229837
      pz      :     0.875982  p :     2.666615
      px      :     0.848915
      py      :     0.941718
      dz2     :     0.004914  d :     0.036056
      dxz     :     0.009619
      dyz     :     0.004891
      dx2y2   :     0.007932
      dxy     :     0.008701

 14 H s       :     0.960080  s :     0.960080
      pz      :     0.010354  p :     0.023609
      px      :     0.008565
      py      :     0.004690

 15 C s       :     3.166828  s :     3.166828
      pz      :     0.969936  p :     2.920643
      px      :     0.967749
      py      :     0.982959
      dz2     :     0.003257  d :     0.032403
      dxz     :     0.010384
      dyz     :     0.004583
      dx2y2   :     0.006298
      dxy     :     0.007880

 16 H s       :     1.039689  s :     1.039689
      pz      :     0.008286  p :     0.022718
      px      :     0.005164
      py      :     0.009269

 17 C s       :     2.921077  s :     2.921077
      pz      :     0.960126  p :     2.746532
      px      :     0.919169
      py      :     0.867236
      dz2     :     0.009664  d :     0.068826
      dxz     :     0.016538
      dyz     :     0.014996
      dx2y2   :     0.010286
      dxy     :     0.017342

 18 H s       :     1.066787  s :     1.066787
      pz      :     0.006851  p :     0.022132
      px      :     0.004779
      py      :     0.010503

 19 O s       :     3.734859  s :     3.734859
      pz      :     1.526288  p :     4.580500
      px      :     1.407274
      py      :     1.646938
      dz2     :     0.001920  d :     0.012599
      dxz     :     0.004963
      dyz     :     0.002920
      dx2y2   :     0.001284
      dxy     :     0.001512

 20 H s       :     0.802114  s :     0.802114
      pz      :     0.022890  p :     0.067177
      px      :     0.024583
      py      :     0.019704

 21 C s       :     2.998931  s :     2.998931
      pz      :     0.917884  p :     2.650910
      px      :     0.845858
      py      :     0.887169
      dz2     :     0.046803  d :     0.144174
      dxz     :     0.043160
      dyz     :     0.034529
      dx2y2   :     0.011692
      dxy     :     0.007991

 22 O s       :     3.744675  s :     3.744675
      pz      :     1.480316  p :     4.664031
      px      :     1.641540
      py      :     1.542175
      dz2     :     0.002934  d :     0.013966
      dxz     :     0.004502
      dyz     :     0.002841
      dx2y2   :     0.001830
      dxy     :     0.001859

 23 O s       :     3.788501  s :     3.788501
      pz      :     1.321405  p :     4.335309
      px      :     1.542558
      py      :     1.471346
      dz2     :     0.006601  d :     0.017390
      dxz     :     0.004797
      dyz     :     0.004335
      dx2y2   :     0.000745
      dxy     :     0.000911



                     *******************************
                     * LOEWDIN POPULATION ANALYSIS *
                     *******************************

----------------------
LOEWDIN ATOMIC CHARGES
----------------------
   0 C :   -0.067631
   1 H :    0.004844
   2 H :    0.018576
   3 C :   -0.064128
   4 C :   -0.069226
   5 O :   -0.403696
   6 O :   -0.434824
   7 O :   -0.241683
   8 C :    0.052884
   9 H :   -0.037161
  10 C :   -0.115821
  11 H :   -0.011534
  12 C :   -0.012682
  13 C :    0.029553
  14 H :    0.044867
  15 C :   -0.114522
  16 H :   -0.001438
  17 C :    0.043316
  18 H :   -0.024618
  19 O :   -0.162694
  20 H :    0.049930
  21 C :   -0.016335
  22 O :   -0.363954
  23 O :   -0.102024

-------------------------------
LOEWDIN REDUCED ORBITAL CHARGES
-------------------------------
  0 C s       :     2.896783  s :     2.896783
      pz      :     0.980376  p :     3.102776
      px      :     1.074181
      py      :     1.048219
      dz2     :     0.004980  d :     0.068071
      dxz     :     0.011973
      dyz     :     0.001352
      dx2y2   :     0.023405
      dxy     :     0.026361

  1 H s       :     0.918803  s :     0.918803
      pz      :     0.015153  p :     0.076353
      px      :     0.019096
      py      :     0.042103

  2 H s       :     0.909851  s :     0.909851
      pz      :     0.016059  p :     0.071573
      px      :     0.020073
      py      :     0.035440

  3 C s       :     2.898140  s :     2.898140
      pz      :     1.013519  p :     3.002228
      px      :     1.049480
      py      :     0.939229
      dz2     :     0.012650  d :     0.163760
      dxz     :     0.021943
      dyz     :     0.013990
      dx2y2   :     0.054579
      dxy     :     0.060598

  4 C s       :     2.866455  s :     2.866455
      pz      :     0.852628  p :     2.878633
      px      :     1.010731
      py      :     1.015274
      dz2     :     0.021577  d :     0.324138
      dxz     :     0.056940
      dyz     :     0.027243
      dx2y2   :     0.105783
      dxy     :     0.112595

  5 O s       :     3.570318  s :     3.570318
      pz      :     1.537983  p :     4.808765
      px      :     1.689294
      py      :     1.581488
      dz2     :     0.003370  d :     0.024613
      dxz     :     0.002574
      dyz     :     0.004332
      dx2y2   :     0.004966
      dxy     :     0.009371

  6 O s       :     3.565880  s :     3.565880
      pz      :     1.577230  p :     4.844835
      px      :     1.470362
      py      :     1.797243
      dz2     :     0.003541  d :     0.024109
      dxz     :     0.005099
      dyz     :     0.000120
      dx2y2   :     0.010728
      dxy     :     0.004622

  7 O s       :     3.466360  s :     3.466360
      pz      :     1.595616  p :     4.748879
      px      :     1.687990
      py      :     1.465273
      dz2     :     0.004955  d :     0.026444
      dxz     :     0.003334
      dyz     :     0.007232
      dx2y2   :     0.004199
      dxy     :     0.006723

  8 C s       :     2.868313  s :     2.868313
      pz      :     0.914577  p :     2.924068
      px      :     1.072875
      py      :     0.936617
      dz2     :     0.027033  d :     0.154734
      dxz     :     0.031015
      dyz     :     0.044859
      dx2y2   :     0.019487
      dxy     :     0.032340

  9 H s       :     0.972054  s :     0.972054
      pz      :     0.014618  p :     0.065107
      px      :     0.024011
      py      :     0.026478

 10 C s       :     2.864953  s :     2.864953
      pz      :     1.081543  p :     3.161715
      px      :     1.008038
      py      :     1.072133
      dz2     :     0.015410  d :     0.089153
      dxz     :     0.024423
      dyz     :     0.016981
      dx2y2   :     0.016035
      dxy     :     0.016304

 11 H s       :     0.937015  s :     0.937015
      pz      :     0.021928  p :     0.074519
      px      :     0.023114
      py      :     0.029477

 12 C s       :     2.897184  s :     2.897184
      pz      :     0.980115  p :     3.006195
      px      :     1.092366
      py      :     0.933714
      dz2     :     0.022947  d :     0.109303
      dxz     :     0.026659
      dyz     :     0.018462
      dx2y2   :     0.020101
      dxy     :     0.021135

 13 C s       :     2.875870  s :     2.875870
      pz      :     0.978759  p :     3.001652
      px      :     1.059830
      py      :     0.963063
      dz2     :     0.012248  d :     0.092926
      dxz     :     0.025237
      dyz     :     0.011430
      dx2y2   :     0.021249
      dxy     :     0.022762

 14 H s       :     0.883597  s :     0.883597
      pz      :     0.030858  p :     0.071536
      px      :     0.025575
      py      :     0.015103

 15 C s       :     2.873504  s :     2.873504
      pz      :     1.023827  p :     3.154947
      px      :     1.076094
      py      :     1.055026
      dz2     :     0.009261  d :     0.086071
      dxz     :     0.027844
      dyz     :     0.011151
      dx2y2   :     0.016876
      dxy     :     0.020939

 16 H s       :     0.932252  s :     0.932252
      pz      :     0.025333  p :     0.069186
      px      :     0.015771
      py      :     0.028082

 17 C s       :     2.849055  s :     2.849055
      pz      :     1.026416  p :     2.949674
      px      :     0.962710
      py      :     0.960547
      dz2     :     0.019040  d :     0.157955
      dxz     :     0.041659
      dyz     :     0.036516
      dx2y2   :     0.020946
      dxy     :     0.039794

 18 H s       :     0.951228  s :     0.951228
      pz      :     0.020880  p :     0.073391
      px      :     0.017578
      py      :     0.034933

 19 O s       :     3.464620  s :     3.464620
      pz      :     1.584169  p :     4.673869
      px      :     1.437881
      py      :     1.651819
      dz2     :     0.002449  d :     0.024205
      dxz     :     0.010436
      dyz     :     0.004724
      dx2y2   :     0.002685
      dxy     :     0.003911

 20 H s       :     0.770446  s :     0.770446
      pz      :     0.066838  p :     0.179624
      px      :     0.063394
      py      :     0.049393

 21 C s       :     2.838493  s :     2.838493
      pz      :     1.026104  p :     2.854062
      px      :     0.952507
      py      :     0.875451
      dz2     :     0.111967  d :     0.323780
      dxz     :     0.097955
      dyz     :     0.068445
      dx2y2   :     0.027039
      dxy     :     0.018375

 22 O s       :     3.574620  s :     3.574620
      pz      :     1.552267  p :     4.764507
      px      :     1.661094
      py      :     1.551146
      dz2     :     0.005407  d :     0.024827
      dxz     :     0.009198
      dyz     :     0.004967
      dx2y2   :     0.002493
      dxy     :     0.002763

 23 O s       :     3.594214  s :     3.594214
      pz      :     1.443320  p :     4.478311
      px      :     1.557206
      py      :     1.477784
      dz2     :     0.013224  d :     0.029499
      dxz     :     0.008803
      dyz     :     0.005499
      dx2y2   :     0.000996
      dxy     :     0.000976



                      *****************************
                      * MAYER POPULATION ANALYSIS *
                      *****************************

  NA   - Mulliken gross atomic population
  ZA   - Total nuclear charge
  QA   - Mulliken gross atomic charge
  VA   - Mayer's total valence
  BVA  - Mayer's bonded valence
  FA   - Mayer's free valence

  ATOM       NA         ZA         QA         VA         BVA        FA
  0 C      5.9866     6.0000     0.0134     3.8444     3.8444     0.0000
  1 H      1.0241     1.0000    -0.0241     1.0854     1.0854     0.0000
  2 H      1.0044     1.0000    -0.0044     1.0135     1.0135     0.0000
  3 C      6.0508     6.0000    -0.0508     3.8949     3.8949     0.0000
  4 C      5.9481     6.0000     0.0519     4.5215     4.5215     0.0000
  5 O      8.4265     8.0000    -0.4265     2.0730     2.0730    -0.0000
  6 O      8.4723     8.0000    -0.4723     1.9889     1.9889    -0.0000
  7 O      8.4522     8.0000    -0.4522     1.9697     1.9697     0.0000
  8 C      5.8100     6.0000     0.1900     3.8172     3.8172    -0.0000
  9 H      1.1438     1.0000    -0.1438     0.9769     0.9769     0.0000
 10 C      6.0812     6.0000    -0.0812     3.8240     3.8240    -0.0000
 11 H      1.0958     1.0000    -0.0958     1.0457     1.0457    -0.0000
 12 C      6.0252     6.0000    -0.0252     3.8167     3.8167     0.0000
 13 C      5.9325     6.0000     0.0675     3.8975     3.8975     0.0000
 14 H      0.9837     1.0000     0.0163     1.0292     1.0292     0.0000
 15 C      6.1199     6.0000    -0.1199     3.7856     3.7856    -0.0000
 16 H      1.0624     1.0000    -0.0624     0.9799     0.9799    -0.0000
 17 C      5.7364     6.0000     0.2636     3.8658     3.8658    -0.0000
 18 H      1.0889     1.0000    -0.0889     1.0597     1.0597    -0.0000
 19 O      8.3280     8.0000    -0.3280     2.0348     2.0348    -0.0000
 20 H      0.8693     1.0000     0.1307     1.0349     1.0349    -0.0000
 21 C      5.7940     6.0000     0.2060     4.3904     4.3904     0.0000
 22 O      8.4227     8.0000    -0.4227     2.0779     2.0779    -0.0000
 23 O      8.1412     8.0000    -0.1412     2.3843     2.3843     0.0000

  Mayer bond orders larger than 0.100000
B(  0-C ,  1-H ) :   0.8948 B(  0-C ,  2-H ) :   0.9233 B(  0-C ,  3-C ) :   1.9113 
B(  1-H , 22-O ) :   0.1139 B(  3-C ,  4-C ) :   0.8531 B(  3-C ,  7-O ) :   1.0460 
B(  4-C ,  5-O ) :   1.8977 B(  4-C ,  6-O ) :   1.7536 B(  5-O ,  6-O ) :   0.1082 
B(  6-O , 18-H ) :   0.1026 B(  7-O ,  8-C ) :   0.8557 B(  8-C ,  9-H ) :   0.8654 
B(  8-C , 10-C ) :   1.0224 B(  8-C , 17-C ) :   0.9602 B( 10-C , 11-H ) :   0.9137 
B( 10-C , 12-C ) :   1.6978 B( 12-C , 13-C ) :   1.1074 B( 12-C , 21-C ) :   0.8268 
B( 13-C , 14-H ) :   0.9726 B( 13-C , 15-C ) :   1.6919 B( 15-C , 16-H ) :   0.9624 
B( 15-C , 17-C ) :   0.9788 B( 17-C , 18-H ) :   0.8790 B( 17-C , 19-O ) :   1.0201 
B( 19-O , 20-H ) :   0.9800 B( 21-C , 22-O ) :   1.6916 B( 21-C , 23-O ) :   1.8586 
B( 22-O , 23-O ) :   0.1328 

-------
TIMINGS
-------

Total SCF time: 0 days 0 hours 1 min 12 sec 

Total time                  ....      72.475 sec
Sum of individual times     ....      71.485 sec  ( 98.6%)

SCF preparation             ....       1.598 sec  (  2.2%)
Fock matrix formation       ....      66.528 sec  ( 91.8%)
  Startup                   ....       0.379 sec  (  0.6% of F)
  Split-RI-J                ....       6.936 sec  ( 10.4% of F)
  Chain of spheres X        ....      39.035 sec  ( 58.7% of F)
  XC integration            ....      10.629 sec  ( 16.0% of F)
    XC Preparation          ....       0.000 sec  (  0.0% of XC)
    Basis function eval.    ....       2.427 sec  ( 22.8% of XC)
    Density eval.           ....       1.568 sec  ( 14.8% of XC)
    XC-Functional eval.     ....       0.463 sec  (  4.4% of XC)
    XC-Potential eval.      ....       1.766 sec  ( 16.6% of XC)
  CPCM terms                ....       8.077 sec  ( 12.1% of F)
Diagonalization             ....       0.000 sec  (  0.0%)
Density matrix formation    ....       0.845 sec  (  1.2%)
Total Energy calculation    ....       0.365 sec  (  0.5%)
Population analysis         ....       0.091 sec  (  0.1%)
Orbital Transformation      ....       0.101 sec  (  0.1%)
Orbital Orthonormalization  ....       0.000 sec  (  0.0%)
DIIS solution               ....       1.176 sec  (  1.6%)
SOSCF solution              ....       0.781 sec  (  1.1%)
Finished LeanSCF after  72.7 sec

Maximum memory used throughout the entire LEANSCF-calculation: 31.3 MB


-------------------------------------------------------------------------------
                          DFT DISPERSION CORRECTION                            
                                                                               
                              DFTD3 V3.1  Rev 1                                
                          USING Becke-Johnson damping                          
-------------------------------------------------------------------------------
The B3LYP functional is recognized
Active option DFTDOPT                   ...         4   

molecular C6(AA) [au] = 6928.104088 


            DFT-D V3
 parameters
 s6 scaling factor         :     1.0000 
 a1 scaling factor         :     0.3981 
 s8 scaling factor         :     1.9889 
 a2 scaling factor         :     4.4211 
 ad hoc parameters k1-k3   :    16.0000     1.3333    -4.0000 

 Edisp/kcal,au: -33.251947657889  -0.052990345939 
 E6   /kcal   : -15.586009181 
 E8   /kcal   : -17.665938477 
 % E8         :  53.127530028 

-------------------------   ----------------
Dispersion correction           -0.052990346
-------------------------   ----------------


-------------------------   --------------------
FINAL SINGLE POINT ENERGY      -836.033243414561
-------------------------   --------------------



           ************************************************************
           *        Program running with 8 parallel MPI-processes     *
           *              working on a common directory               *
           ************************************************************
------------------------------------------------------------------------------
                         ORCA SCF GRADIENT CALCULATION
------------------------------------------------------------------------------

Nuc. rep. gradient        (SHARK) ... done (  0.0 sec)
HCore & Overlap gradient  (SHARK) ... done (  0.2 sec)
Split-RIJ-J gradient      (SHARK) ... done (  1.1 sec)
COSX-gradient                     ... done ( 13.3 sec)
XC gradient                       ... done (  2.8 sec)
CPCM gradient                     ... done (  1.4 sec)
Point charge gradient             ... done (  0.3 sec)
Dispersion correction             ... done (  0.1 sec)

-------------------
DISPERSION GRADIENT
-------------------

   1   C   :    0.000719142    0.000642678    0.001006688
   2   H   :    0.000343235    0.000112923    0.000431404
   3   H   :    0.000306724    0.000201333    0.000183982
   4   C   :    0.000129305    0.000705807    0.001016869
   5   C   :   -0.000096694    0.001011120    0.000602580
   6   O   :    0.000022034    0.000652276    0.000099441
   7   O   :   -0.000394333    0.000649856    0.000348056
   8   O   :   -0.000220778   -0.000103038    0.000726685
   9   C   :   -0.000488344   -0.000591319    0.000271984
  10   H   :   -0.000272164   -0.000351415    0.000241368
  11   C   :    0.000077888   -0.000904605    0.000174017
  12   H   :    0.000066267   -0.000498013    0.000189466
  13   C   :    0.000584812   -0.000586592   -0.000643492
  14   C   :    0.000142879    0.000085973   -0.001183762
  15   H   :    0.000089918    0.000178324   -0.000388192
  16   C   :   -0.000439355    0.000170891   -0.001146286
  17   H   :   -0.000136263    0.000209483   -0.000391133
  18   C   :   -0.000773235   -0.000250700   -0.000383186
  19   H   :   -0.000489896    0.000073365   -0.000064562
  20   O   :   -0.000669994   -0.000218682   -0.000247196
  21   H   :   -0.000370798   -0.000160784   -0.000048445
  22   C   :    0.000761164   -0.000476256   -0.000418709
  23   O   :    0.000634047   -0.000379091   -0.000042387
  24   O   :    0.000474441   -0.000173533   -0.000335190

Difference to translation invariance:
           :   -0.0000000000    0.0000000000    0.0000000000

Difference to rotation invariance:
           :    0.0000000000    0.0000000000    0.0000000000

Norm of the Dispersion gradient    ...    0.0041598468
RMS gradient                       ...    0.0004902426
MAX gradient                       ...    0.0011837618

------------------
CARTESIAN GRADIENT
------------------

   1   C   :   -0.003137010    0.001810323   -0.008808590
   2   H   :   -0.003697660    0.003346904    0.006696123
   3   H   :   -0.000036486   -0.000938964    0.001639244
   4   C   :    0.003775214   -0.000698545   -0.000699000
   5   C   :   -0.005830308   -0.010747557    0.010337460
   6   O   :    0.002400499    0.003224948   -0.008291449
   7   O   :    0.014105715   -0.003014899   -0.009052439
   8   O   :    0.007151473   -0.005148929   -0.024421601
   9   C   :   -0.017807531    0.009470190    0.019637387
  10   H   :    0.008209374    0.001706572   -0.006392486
  11   C   :    0.023866559    0.004155089   -0.002328429
  12   H   :   -0.004381526    0.000514008   -0.000548333
  13   C   :   -0.005235771   -0.006781771    0.007031112
  14   C   :   -0.008761234    0.004144448    0.001602159
  15   H   :   -0.002290047    0.003542549    0.000634836
  16   C   :    0.003814663   -0.001124058   -0.006675753
  17   H   :    0.000910702   -0.000763822   -0.000221710
  18   C   :   -0.005999424   -0.004923629    0.001238998
  19   H   :    0.003247711   -0.000962375   -0.001905307
  20   O   :    0.007813593    0.005985787    0.000255274
  21   H   :   -0.002338458   -0.000577775    0.000238223
  22   C   :   -0.046383918    0.014182442    0.028274773
  23   O   :    0.015513530   -0.013477784   -0.024037346
  24   O   :    0.033856029   -0.015596446   -0.022821816

Difference to translation invariance:
           :    0.0187656882   -0.0126732953   -0.0386186689

Difference to rotation invariance:
           :   -1.1322452654    6.3276280664   -2.6742522357

Norm of the Cartesian gradient     ...    0.0976820979
RMS gradient                       ...    0.0115119456
MAX gradient                       ...    0.0463839180

-------
TIMINGS
-------

Total SCF gradient time     ....       19.069 sec

Densities                   ....       0.001 sec  (  0.0%)
One electron gradient       ....       0.155 sec  (  0.8%)
RI-J Coulomb gradient       ....       1.073 sec  (  5.6%)
COSX gradient               ....      13.271 sec  ( 69.6%)
XC gradient                 ....       2.784 sec  ( 14.6%)
CPCM gradient               ....       1.373 sec  (  7.2%)
   A-Matrix (El+Nuc)        ....       0.388 sec  (  2.0%)
   Potential                ....       0.985 sec  (  5.2%)

Maximum memory used throughout the entire SCFGRAD-calculation: 36.0 MB


           ************************************************************
           *        Program running with 8 parallel MPI-processes     *
           *              working on a common directory               *
           ************************************************************

------------------------------------------------------------------------------
                         ORCA PROPERTY INTEGRAL CALCULATIONS
------------------------------------------------------------------------------

GBWName                                   ... job.gbw
Number of atoms                           ...     24
Number of basis functions                 ...    264
Max core memory                           ...   3000 MB

Dipole integrals                          ...  NO
Quadrupole integrals                      ...  NO
Linear momentum integrals                 ...  NO
Angular momentum integrals                ...  NO
Higher moments length integrals           ...  NO
Higher moments velocity integrals         ...  NO
Kinetic energy integrals                  ...  NO
GIAO right hand sides                     ...  NO
GIAO dipole derivative integrals          ...  NO
SOC integrals                             ...  NO
EPR diamagnetic integrals (GIAO)          ...  NO
EPR gauge integrals                       ...  NO
Field gradient integrals                  ...  NO (   0 nuclei)
Spin-dipole/Fermi contact integrals       ...  NO (   0 nuclei)
Contact density integrals                 ...  NO (   0 nuclei)
Nucleus-orbit integrals                   ...  NO (   0 nuclei)
Geometric perturbations                   ... YES (  24 nuclei)

Choice of electric origin   ... Center of mass
Position of electric origin ... (111.1122, 63.4056,105.1131) 
Choice of magnetic origin   ... GIAO
Position of magnetic origin ... (  0.0000,  0.0000,  0.0000) 

Calculating integrals                     ... Geometrical perturbation right hand sides

-----------------------
GEOMETRIC PERTURBATIONS (24 nuclei)
-----------------------

MaxCore                            ...   3000 MB
Number of batches                  ...      1

BATCH   0: Atoms    0 -   23 ( 72 perturbations)
   => H(core) and overlap derivative integrals     ... done (     0.3 sec)
   => Making and storing internal U-coefficients   ... done (     0.1 sec)
   => RI-J derivative integrals                    ... done (     5.0 sec)
   => RI-J response operators                      ... done (     0.8 sec)
   => Chain of spheres derivative integrals        ... done (    14.4 sec)
   => Chain of spheres response operator           ... done (    18.5 sec)
   => XC derivative integrals                      ... done (    40.6 sec)
   => XC response operators                        ... done (    12.3 sec)
   => CPCM derivative integrals                    ... done (    13.0 sec)
   => CPCM response operators                      ... done (    19.7 sec)
   => Completing and storing right hand sides      ... done (     0.1 sec)
   => Total time for right hand sides = 115.1 sec

  geometrical perturbations done (115.2 sec)

Property integrals calculated in 115.2 sec

Maximum memory used throughout the entire PROPINT-calculation: 352.2 MB


           ************************************************************
           *        Program running with 8 parallel MPI-processes     *
           *              working on a common directory               *
           ************************************************************
------------------------------------------------------------------------------
                            ORCA SCF RESPONSE CALCULATION
------------------------------------------------------------------------------

GBWName                                 ... job.gbw
Number of atoms                         ...     24
Number of basis functions               ...    264
Max core memory                         ...   3000 MB

Electric field perturbation             ...  NO
Quadrupolar field perturbation          ...  NO
Magnetic field perturbation (no GIAO)   ...  NO
Magnetic field perturbation (with GIAO) ...  NO
Linear momentum (velocity) perturbation ...  NO
Spin-orbit coupling perturbation        ...  NO
Choice of electric origin               ... Center of mass
[...]
Solvent:                                          ... CUSTOM
Radii:
  Scheme                                          ... Element-dependent radii
  Radius for C  used is    3.8550 Bohr (=   2.0400 Ang.)
  Radius for H  used is    2.4944 Bohr (=   1.3200 Ang.)
  Radius for O  used is    3.4469 Bohr (=   1.8240 Ang.)
Calculating surface                               ...        done! (  0.0s)
Cavity surface points                             ...         2153
Cavity Volume                                     ...    1704.0140
Cavity Surface-area                               ...     887.3406
Calculating surface distance matrix               ...        done! (  0.0s)
Performing Cholesky decomposition & store         ...        done! (  0.4s)
Overall time for CPCM initialization              ...                 0.5s

----------------------------------------D-I-I-S--------------------------------------------
Iteration    Energy (Eh)           Delta-E    RMSDP     MaxDP     DIISErr   Damp  Time(sec)
-------------------------------------------------------------------------------------------
               ***  Starting incremental Fock matrix formation  ***
    1    -836.4976011542971719     0.00e+00  3.18e-04  1.00e-02  2.23e-02  0.700   2.6
    2    -836.4988145632969463    -1.21e-03  2.87e-04  9.31e-03  1.47e-02  0.700   1.5
                               ***Turning on AO-DIIS***
    3    -836.4997430462485681    -9.28e-04  2.20e-04  6.89e-03  9.23e-03  0.700   1.5
    4    -836.5004195097662887    -6.76e-04  5.63e-04  1.73e-02  6.70e-03  0.000   1.4
                              *** Initializing SOSCF ***
---------------------------------------S-O-S-C-F--------------------------------------
Iteration    Energy (Eh)           Delta-E    RMSDP     MaxDP     MaxGrad    Time(sec)
--------------------------------------------------------------------------------------
    5    -836.5021277239532083    -1.71e-03  5.45e-05  1.21e-03  6.42e-04     1.6
               *** Restarting incremental Fock matrix formation ***
    6    -836.5021517348757243    -2.40e-05  7.65e-05  1.49e-03  6.16e-04     2.6
    7    -836.5021661719706572    -1.44e-05  6.03e-05  1.29e-03  1.39e-04     2.1
    8    -836.5021651594549894     1.01e-06  3.10e-05  6.69e-04  1.92e-04     2.1
    9    -836.5021689859725029    -3.83e-06  1.38e-05  4.53e-04  1.07e-04     2.1
   10    -836.5021684211521915     5.65e-07  9.34e-06  2.92e-04  1.81e-04     1.9
   11    -836.5021692301431813    -8.09e-07  1.89e-06  6.32e-05  5.68e-06     2.1
   12    -836.5021692306736441    -5.30e-10  1.16e-06  3.72e-05  1.01e-05     1.6
                 **** Energy Check signals convergence ****

               *****************************************************
               *                     SUCCESS                       *
               *           SCF CONVERGED AFTER  12 CYCLES          *
               *****************************************************

Recomputing exchange energy using gridx3       ... done (    3.411 sec)
Old exchange energy                            :    -20.894861942 Eh
New exchange energy                            :    -20.894798602 Eh
Exchange energy change after final integration :      0.000063339 Eh
Total energy after final integration           :   -836.502105891 Eh
             **** ENERGY FILE WAS UPDATED (job.en.tmp) ****

----------------
TOTAL SCF ENERGY
----------------

Total Energy       :       -836.50210589128119 Eh          -22762.37952 eV

Components:
Nuclear Repulsion  :       1076.13560440822152 Eh           29283.13852 eV
Electronic Energy  :      -1912.34807102530499 Eh          -52037.63655 eV
One Electron Energy:      -3321.96404095308390 Eh          -90395.23716 eV
Two Electron Energy:       1409.61596992777891 Eh           38357.60060 eV
CPCM Dielectric    :         -0.28970261359008 Eh              -7.88321 eV

Virial components:
Potential Energy   :      -1666.42462736899370 Eh          -45345.71944 eV
Kinetic Energy     :        829.92252147771239 Eh           22583.33992 eV
Virial Ratio       :          2.00792795019209

DFT components:
N(Alpha)           :       58.999894221115 electrons
N(Beta)            :       58.999894221115 electrons
N(Total)           :      117.999788442231 electrons
E(X)               :      -83.178963916290 Eh       
E(C)               :       -4.844411614785 Eh       
E(XC)              :      -88.023375531074 Eh       

CPCM Solvation Model Properties:
Surface-charge          :          1.98512647447467
Corrected charge        :          2.00000000000000
Outlying charge corr.   :          0.00001038992354 Eh               0.00028 eV
Free-energy (cav+disp)  :  This term is not implemented in the current solvation scheme

---------------
SCF CONVERGENCE
---------------

  Last Energy change         ...    5.3046e-10  Tolerance :   1.0000e-08
  Last MAX-Density change    ...    3.7223e-05  Tolerance :   1.0000e-07
  Last RMS-Density change    ...    1.1577e-06  Tolerance :   5.0000e-09
  Last DIIS Error            ...    6.4234e-04  Tolerance :   5.0000e-07
  Last Orbital Gradient      ...    1.0127e-05  Tolerance :   1.0000e-05
  Last Orbital Rotation      ...    3.4126e-05  Tolerance :   1.0000e-05


Total SCF time: 0 days 0 hours 0 min 28 sec 
Finished LeanSCF after  30.2 sec

Maximum memory used throughout the entire LEANSCF-calculation: 40.3 MB


-------------------------------------------------------------------------------
                          DFT DISPERSION CORRECTION                            
                                                                               
                              DFTD3 V3.1  Rev 1                                
                          USING Becke-Johnson damping                          
-------------------------------------------------------------------------------
-------------------------   ----------------
Dispersion correction           -0.050670876
-------------------------   ----------------


-------------------------   --------------------
FINAL SINGLE POINT ENERGY      -836.552776767537
-------------------------   --------------------



           ************************************************************
           *        Program running with 8 parallel MPI-processes     *
           *              working on a common directory               *
           ************************************************************
------------------------------------------------------------------------------
                         ORCA SCF GRADIENT CALCULATION
------------------------------------------------------------------------------

Nuc. rep. gradient        (SHARK) ... done (  0.0 sec)
HCore & Overlap gradient  (SHARK) ... done (  0.1 sec)
Split-RIJ-J gradient      (SHARK) ... done (  0.6 sec)
COSX-gradient                     ... done (  9.1 sec)
XC gradient                       ... done (  1.6 sec)
CPCM gradient                     ... done (  0.8 sec)
Point charge gradient             ... done (  0.2 sec)
Dispersion correction             ... done (  0.0 sec)

-------------------
DISPERSION GRADIENT
-------------------

   1   C   :    0.000156289    0.000645401    0.001028057
   2   H   :    0.000304619    0.000181435    0.000280931
   3   H   :    0.000136793    0.000230276    0.000173952
   4   C   :   -0.000326088    0.000333803    0.001061110
   5   C   :   -0.000219739    0.000167372    0.000479954
   6   O   :   -0.000294460    0.000291971    0.000293552
   7   O   :   -0.000223231   -0.000089052    0.000402022
   8   O   :   -0.000340476   -0.000293294    0.000451533
   9   C   :   -0.000436325   -0.000684161   -0.000107247
  10   H   :   -0.000198127   -0.000435978    0.000060003
  11   C   :    0.000316187   -0.000836488   -0.000125585
  12   H   :    0.000227695   -0.000482276    0.000077359
  13   C   :    0.000733380   -0.000165443   -0.000541686
  14   C   :    0.000200424    0.000164444   -0.000901314
  15   H   :    0.000100526    0.000094296   -0.000388784
  16   C   :   -0.000307207    0.000233862   -0.000832929
  17   H   :   -0.000124181    0.000152384   -0.000323445
  18   C   :   -0.000651362   -0.000064886   -0.000487663
  19   H   :   -0.000450698    0.000216074   -0.000172839
  20   O   :   -0.000578020   -0.000086861   -0.000235157
  21   H   :   -0.000378313   -0.000103450   -0.000064057
  22   C   :    0.000982433    0.000120873   -0.000107430
  23   O   :    0.000721630   -0.000078573    0.000099359
  24   O   :    0.000648250    0.000488270   -0.000119696

Difference to translation invariance:
           :    0.0000000000   -0.0000000000    0.0000000000

Difference to rotation invariance:
           :    0.0000000000   -0.0000000000   -0.0000000000

Norm of the Dispersion gradient    ...    0.0035976920
RMS gradient                       ...    0.0004239921
MAX gradient                       ...    0.0010611102

------------------
CARTESIAN GRADIENT
------------------

   1   C   :   -0.001527438   -0.000168300    0.003893935
   2   H   :    0.007281063   -0.000164504   -0.006437084
   3   H   :    0.000572370    0.001049677    0.002602607
   4   C   :   -0.004094909   -0.006614675   -0.005885561
   5   C   :   -0.004667872   -0.001247399    0.003189827
   6   O   :    0.003832982    0.000106427   -0.003110399
   7   O   :   -0.003266302    0.006550212    0.000396908
   8   O   :    0.002414814    0.000856146   -0.009422700
   9   C   :   -0.010811216   -0.002097305    0.011988466
  10   H   :    0.001917970    0.003683582   -0.003138206
  11   C   :   -0.000680577   -0.001209939   -0.001418139
  12   H   :    0.001765497    0.000194552    0.001882554
  13   C   :    0.001820987   -0.001604462   -0.000827414
  14   C   :   -0.000272680    0.000628523   -0.001041794
  15   H   :    0.000062157   -0.000822892   -0.001055808
  16   C   :   -0.004194677    0.000336132   -0.002488056
  17   H   :    0.000804387   -0.000489625    0.002074938
  18   C   :   -0.001903425    0.003441786    0.000234970
  19   H   :   -0.000964444   -0.001370169   -0.002010915
  20   O   :    0.001574511    0.001487720   -0.000198791
  21   H   :   -0.000645864   -0.000288858    0.000056886
  22   C   :    0.005415687    0.000040122    0.001053274
  23   O   :   -0.002000663    0.001307637   -0.003491498
  24   O   :   -0.000763111   -0.001500275    0.003246633

Difference to translation invariance:
           :   -0.0083307523    0.0021041100   -0.0099053679

Difference to rotation invariance:
           :   -0.8717831311    0.1760151073    0.7034435005

Norm of the Cartesian gradient     ...    0.0292135099
RMS gradient                       ...    0.0034428452
MAX gradient                       ...    0.0119884661

-------
TIMINGS
-------

Total SCF gradient time     ....       12.369 sec

Densities                   ....       0.001 sec  (  0.0%)
One electron gradient       ....       0.088 sec  (  0.7%)
RI-J Coulomb gradient       ....       0.612 sec  (  4.9%)
COSX gradient               ....       9.056 sec  ( 73.2%)
XC gradient                 ....       1.602 sec  ( 13.0%)
CPCM gradient               ....       0.789 sec  (  6.4%)
   A-Matrix (El+Nuc)        ....       0.168 sec  (  1.4%)
   Potential                ....       0.621 sec  (  5.0%)

Maximum memory used throughout the entire SCFGRAD-calculation: 35.3 MB
------------------------------------------------------------------------------
                         ORCA GEOMETRY RELAXATION STEP
------------------------------------------------------------------------------

Reading the OPT-File                    .... done
Number of atoms                         ....  24
Number of degrees of freedom            ....  72
Current Energy                          ....  -836.552776768 Eh
Current gradient norm                   ....     0.029213510 Eh/bohr
Maximum allowed component of the step   ....  0.300
Current trust radius                    ....  0.700
Updating the approximate Hessian        .... done
Forming augmented Hessian.
Diagonalizing augmented Hessian.
Reducing step size.
The input lambda is                     ....    -0.008635
   iter:   5  x=   -0.009420  g=   89.323447 f(x)=     0.000000
The output lambda is                    ....    -0.009420 (5 iterations)
The step size is now                    ....  0.700
Storing new coordinates                 .... done
The predicted energy change is          .... -0.006417721
Previously predicted energy change      .... -0.003813834
Actually observed energy change         .... -0.004500277
Ratio of predicted to observed change   .... 1.179987678
New trust radius                        .... 0.700000000

                                .--------------------.
          ----------------------|Geometry convergence|-------------------------
          Item                value                   Tolerance       Converged
          ---------------------------------------------------------------------
          Energy change      -0.0045002775            0.0000050000      NO
          RMS gradient        0.0034428452            0.0001000000      NO
          MAX gradient        0.0119884661            0.0003000000      NO
          RMS step            0.0824957911            0.0020000000      NO
          MAX step            0.2844522216            0.0040000000      NO
          -------------------------------------------------------------------------

The optimization has not yet converged - more geometry cycles are needed

Geometry step timings:
Preparation and reading OPT file:      0.002 s (16.093 %)
Hessian update/contruction      :      0.006 s (40.749 %)
Making the step                 :      0.002 s (14.565 %)
Storing new data                :      0.001 s ( 7.286 %)
Checking convergence            :      0.003 s (21.301 %)
Total time                      :      0.015 s

Time for energy+gradient        :     50.769 s
Time for complete geometry iter :     54.007 s




    ----------------------------------------------------------------------------
                                  WARNING !!!
       The optimization did not converge but reached the maximum number of
       optimization cycles.
       Please check your results very carefully.
    ----------------------------------------------------------------------------



--------------------------------
SUGGESTED CITATIONS FOR THIS RUN
--------------------------------

Below you find a list of papers that are relevant to this ORCA run
We neither can nor want to force you to cite these papers, but we appreciate if you do
You receive ORCA, which is the product of decades of hard work by many enthusiastic individuals, for free
The only thing we kindly ask in return is that you cite our papers,
We deeply appreciate it, if you show your appreciation for ORCA by not just citing the generic ORCA reference.

Please note that relegating all ORCA citations to the supporting information does *not* help us.
SI sections are not indexed - citations you put there will not count into any citation statistics
But we need these citations in order to attract the funding resources that allow us to do what we are doing

Therefore, if you are a happy ORCA user, please consider citing a few of the papers listed below in the main body of your paper

In addition to the list printed below, the program has created the file job.bibtex that contains the list in bibtex format
You can import this file easily into all common literature databanks and citation aid programs


List of essential papers. We consider these as the minimum necessary citations

  1. Neese,F.
     Software update: the ORCA program system, version 5.0
     WIRES Comput. Molec. Sci., 2022 12(1)e1606
     doi.org/10.1002/wcms.1606

List of papers to cite with high priority. The work reported in these papers was absolutely
necessary for this run to complete.
Our perspective: the developers of density functionals and basis sets usually get cited in chemistry papers
Good! But without the algorithms to do something with them, the functionals or basis sets would not do anything.
Hence, in our opinion, the algorithm design and method developments papers are equally worthy of getting cited

  1. Neese,F.
     An improvement of the resolution of the identity approximation for the formation of the Coulomb matrix
     J. Comp. Chem., 2003 24(14)1740-1747
     doi.org/10.1002/jcc.10318
  2. Neese,F.; Wennmohs,F.; Hansen,A.; Becker,U.
     Efficient, approximate and parallel Hartree-Fock and hybrid DFT calculations. A 'chain-of-spheres' algorithm for the Hartree-Fock exchange
     Chem. Phys., 2009 356(1-3)98-109
     doi.org/10.1016/j.chemphys.2008.10.036
  3. Bykov,D.; Petrenko,T.; Izsak,R.; Kossmann,S.; Becker,U.; Valeev,E.; Neese,F.
     Efficient implementation of the analytic second derivatives of Hartree-Fock and hybrid DFT energies: a detailed analysis of different approximations
     Molec. Phys., 2015 113 1961-1977
     doi.org/10.1080/00268976.2015.1025114
  4. Garcia-Rates,M.; Neese,F.
     Effect of the Solute Cavity on the Solvation Energy and its Derivatives within the Framework of the Gaussian Charge Scheme
     J. Comput. Chem., 2020 41 922-939
     doi.org/10.1002/jcc.26139
  5. Helmich-Paris,B.; de Souza,B.; Neese,F.; Izsák,R.
     An improved chain of spheres for exchange algorithm
     J. Chem. Phys., 2021 155 104109
     doi.org/doi: 10.1063/5.0058766.
  6. Neese,F.
     The SHARK Integral Generation and Digestion System
     J. Comp. Chem., 2022  1-16
     doi.org/10.1002/jcc.26942
  7. Grimme,S.; Antony,J.; Ehrlich,S.; Krieg,H.
     A consistent and accurate ab initio parametrization of density functional dispersion correction (DFT-D) for the 94 elements H-Pu
     J. Chem. Phys., 2010 132 154104
     doi.org/10.1063/1.3382344
  8. Grimme,S.; Ehrlich,S.; Goerigk,L.
     Effect of the damping function in dispersion corrected density functional theory
     J. Comput. Chem., 2011 32(7)1456-1465
     doi.org/10.1002/jcc.21759

List of suggested additional citations. These are papers that are important in the 'surrounding' of 
of this run, or papers that preceded the highly important papers. If you like your results we are grateful for a citation.

  1. Izsak,R.; Neese,F.
     An overlap fitted chain of spheres exchange method
     J. Chem. Phys., 2011 135 144105
     doi.org/10.1063/1.3646921
  2. Izsak,R.; Hansen,A.; Neese,F.
     The resolution of identity and chain of spheres approximations for the LPNO-CCSD singles Fock term
     Molec. Phys., 2012 110 2413-2417
     doi.org/10.1080/00268976.2012.687466
  3. Neese,F.
     The ORCA program system
     WIRES Comput. Molec. Sci., 2012 2(1)73-78
     doi.org/10.1002/wcms.81
  4. Izsak,R.; Neese,F.; Klopper,W.
     Robust fitting techniques in the chain of spheres approximation to the Fock exchange: The role of the complementary space
     J. Chem. Phys., 2013 139 
     doi.org/10.1063/1.4819264
  5. Neese,F.
     Software update: the ORCA program system, version 4.0
     WIRES Comput. Molec. Sci., 2018 8(1)1-6
     doi.org/10.1002/wcms.1327
  6. Neese,F.; Wennmohs,F.; Becker,U.; Riplinger,C.
     The ORCA quantum chemistry program package
     J. Chem. Phys., 2020 152 Art. No. L224108
     doi.org/10.1063/5.0004608

List of optional additional citations

  1. Neese,F.
     Approximate second-order SCF convergence for spin unrestricted wavefunctions
     Chem. Phys. Lett., 2000 325(1-3)93-98
     doi.org/10.1016/s0009-2614(00)00662-x

Timings for individual modules:

Sum of individual times          ...     3903.846 sec (=  65.064 min)
Startup calculation              ...      294.410 sec (=   4.907 min)   7.5 %
SCF iterations                   ...     2508.406 sec (=  41.807 min)  64.3 %
SCF Gradient evaluation          ...     1099.248 sec (=  18.321 min)  28.2 %
Geometry relaxation              ...        1.782 sec (=   0.030 min)   0.0 %
                             ****ORCA TERMINATED NORMALLY****
TOTAL RUN TIME: 0 days 2 hours 28 minutes 58 seconds 692 msec
